
Running Job 1 of 2 Q_in.in
qchem Q_in.in_81765.0 /scratch/ari.fischer/qChem1628463.hpc-mn1/qchem81765/ 0
/usr/local/qchem-5.4.1/exe/qcprog.exe_s Q_in.in_81765.0 /scratch/ari.fischer/qChem1628463.hpc-mn1/qchem81765/
                  Welcome to Q-Chem
     A Quantum Leap Into The Future Of Chemistry


 Q-Chem 5.4, Q-Chem, Inc., Pleasanton, CA (2021)

 License issued to: Nanyang Technological University (site)

 E. Epifanovsky,  A. T. B. Gilbert,  Xintian Feng,  Joonho Lee,  Yuezhi Mao,  
 N. Mardirossian,  P. Pokhilko,  A. White,  M. Wormit,  M. P. Coons,  
 A. L. Dempwolff,  Zhengting Gan,  D. Hait,  P. R. Horn,  L. D. Jacobson,  
 I. Kaliman,  J. Kussmann,  A. W. Lange,  Ka Un Lao,  D. S. Levine,  Jie Liu,  
 S. C. McKenzie,  A. F. Morrison,  K. Nanda,  F. Plasser,  D. R. Rehn,  
 M. L. Vidal,  Zhi-Qiang You,  Ying Zhu,  B. Alam,  B. Albrecht,  
 A. Aldossary,  E. Alguire,  J. H. Andersen,  D. Barton,  K. Begam,  A. Behn,  
 Y. A. Bernard,  E. J. Berquist,  H. Burton,  A. Carreras,  K. Carter-Fenk,  
 R. Chakraborty,  A. D. Chien,  K. D. Closser,  V. Cofer-Shabica,  
 S. Dasgupta,  Jia Deng,  M. de Wergifosse,  M. Diedenhofen,  Hainam Do,  
 S. Ehlert,  Po-Tung Fang,  S. Fatehi,  Qingguo Feng,  T. Friedhoff,  
 J. Gayvert,  Qinghui Ge,  G. Gidofalvi,  M. Goldey,  J. Gomes,  
 C. Gonzalez-Espinoza,  S. Gulania,  A. Gunina,  M. W. D. Hanson-Heine,  
 P. H. P. Harbach,  A. W. Hauser,  M. F. Herbst,  M. Hernandez Vera,  
 M. Hodecker,  Z. C. Holden,  S. Houck,  Xunkun Huang,  Kerwin Hui,  
 B. C. Huynh,  M. Ivanov,  Hyunjun Ji,  Hanjie Jiang,  B. Kaduk,  S. Kaehler,  
 K. Khistyaev,  Jaehoon Kim,  P. Klunzinger,  Z. Koczor-Benda,  
 Joong Hoon Koh,  D. Kosenkov,  L. Koulias,  T. Kowalczyk,  C. M. Krauter,  
 K. Kue,  A. Kunitsa,  T. Kus,  A. Landau,  K. V. Lawler,  D. Lefrancois,  
 S. Lehtola,  Rain Li,  Yi-Pei Li,  Jiashu Liang,  M. Liebenthal,  
 Hung-Hsuan Lin,  You-Sheng Lin,  Fenglai Liu,  Kuan-Yu Liu,  
 M. Loipersberger,  A. Luenser,  A. Manjanath,  P. Manohar,  E. Mansoor,  
 S. F. Manzer,  Shan-Ping Mao,  A. V. Marenich,  T. Markovich,  S. Mason,  
 S. A. Maurer,  P. F. McLaughlin,  M. F. S. J. Menger,  J.-M. Mewes,  
 S. A. Mewes,  P. Morgante,  J. W. Mullinax,  K. J. Oosterbaan,  G. Paran,  
 Alexander C. Paul,  Suranjan K. Paul,  F. Pavosevic,  Zheng Pei,  S. Prager,  
 E. I. Proynov,  E. Ramos,  B. Rana,  A. E. Rask,  A. Rettig,  R. M. Richard,  
 F. Rob,  E. Rossomme,  T. Scheele,  M. Scheurer,  M. Schneider,  
 N. Sergueev,  S. M. Sharada,  W. Skomorowski,  D. W. Small,  C. J. Stein,  
 Yu-Chuan Su,  E. J. Sundstrom,  Zhen Tao,  J. Thirman,  T. Tsuchimochi,  
 N. M. Tubman,  S. P. Veccham,  O. Vydrov,  J. Wenzel,  J. Witte,  A. Yamada,  
 Kun Yao,  S. Yeganeh,  S. R. Yost,  A. Zech,  Igor Ying Zhang,  Xing Zhang,  
 Yu Zhang,  D. Zuev,  A. Aspuru-Guzik,  A. T. Bell,  N. A. Besley,  
 K. B. Bravaya,  B. R. Brooks,  D. Casanova,  Jeng-Da Chai,  S. Coriani,  
 C. J. Cramer,  A. E. DePrince, III,  R. A. DiStasio Jr.,  A. Dreuw,  
 B. D. Dunietz,  T. R. Furlani,  W. A. Goddard III,  S. Grimme,  
 S. Hammes-Schiffer,  T. Head-Gordon,  W. J. Hehre,  Chao-Ping Hsu,  
 T.-C. Jagau,  Yousung Jung,  A. Klamt,  Jing Kong,  D. S. Lambrecht,  
 WanZhen Liang,  N. J. Mayhall,  C. W. McCurdy,  J. B. Neaton,  
 C. Ochsenfeld,  J. A. Parkhill,  R. Peverati,  V. A. Rassolov,  Yihan Shao,  
 L. V. Slipchenko,  T. Stauch,  R. P. Steele,  J. E. Subotnik,  
 A. J. W. Thom,  A. Tkatchenko,  D. G. Truhlar,  T. Van Voorhis,  
 T. A. Wesolowski,  K. B. Whaley,  H. L. Woodcock III,  P. M. Zimmerman,  
 S. Faraji,  P. M. W. Gill,  M. Head-Gordon,  J. M. Herbert,  A. I. Krylov

 Additional authors for Version 5.4.1: 
 S. Kotaru,  Shaozhi Li,  Xiangyuan Li,  F. Matz,  A. Molle,  Haisheng Ren,  
 Yingli Su,  Hung-Yi Tsai,  C. Utku,  Fang Wang

 Contributors to earlier versions of Q-Chem not listed above: 
 R. D. Adamson,  B. Austin,  R. Baer,  J. Baker,  G. J. O. Beran,  
 K. Brandhorst,  S. T. Brown,  E. F. C. Byrd,  A. K. Chakraborty,  
 G. K. L. Chan,  Chun-Min Chang,  Yunqing Chen,  C.-L. Cheng,  
 Siu Hung Chien,  D. M. Chipman,  D. L. Crittenden,  H. Dachsel,  
 R. J. Doerksen,  A. D. Dutoi,  R. G. Edgar,  J. Fosso-Tande,  
 L. Fusti-Molnar,  D. Ghosh,  A. Ghysels,  A. Golubeva-Zadorozhnaya,  
 J. Gonthier,  M. S. Gordon,  S. R. Gwaltney,  G. Hawkins,  J. E. Herr,  
 A. Heyden,  S. Hirata,  E. G. Hohenstein,  G. Kedziora,  F. J. Keil,  
 C. Kelley,  Jihan Kim,  R. A. King,  R. Z. Khaliullin,  P. P. Korambath,  
 W. Kurlancheek,  A. Laurent,  A. M. Lee,  M. S. Lee,  S. V. Levchenko,  
 Ching Yeh Lin,  D. Liotard,  E. Livshits,  R. C. Lochan,  I. Lotan,  
 L. A. Martinez-Martinez,  P. E. Maslen,  N. Nair,  D. P. O'Neill,  
 D. Neuhauser,  E. Neuscamman,  C. M. Oana,  R. Olivares-Amaya,  R. Olson,  
 T. M. Perrine,  B. Peters,  P. A. Pieniazek,  A. Prociuk,  Y. M. Rhee,  
 J. Ritchie,  M. A. Rohrdanz,  E. Rosta,  N. J. Russ,  H. F. Schaefer III,  
 M. W. Schmidt,  N. E. Schultz,  S. Sharma,  N. Shenvi,  C. D. Sherrill,  
 A. C. Simmonett,  A. Sodt,  T. Stein,  D. Stuck,  K. S. Thanthiriwatte,  
 V. Vanovschi,  L. Vogt,  Tao Wang,  A. Warshel,  M. A. Watson,  
 C. F. Williams,  Q. Wu,  X. Xu,  Jun Yang,  W. Zhang,  Yan Zhao

 Please cite Q-Chem as follows:
 Y. Shao et al., Mol. Phys. 113, 184-215 (2015)
 DOI: 10.1080/00268976.2014.952696

 Q-Chem 5.4.1 for Intel X86 EM64T Linux

 Parts of Q-Chem use Armadillo 9.800.1 (Horizon Scraper).
 http://arma.sourceforge.net/

 Q-Chem begins on Mon Jul 17 16:56:08 2023  

 Host: 
0

     Scratch files written to /scratch/ari.fischer/qChem1628463.hpc-mn1/qchem81765//
 Aug1521 |scratch|qcdevops|jenkins|workspace|build_RNUM 8249   
 Processing $rem in /usr/local/qchem-5.4.1/config/preferences:
 Processing $rem in /home/ari.fischer/.qchemrc:
 Symmetry turned off for PCM/SM12/SMD calculation


!!********************************************.
!!******************Warning*******************.
!!Desired Analytical derivatives not available.
!!Finite difference job might take a long time.
!!********************************************.
!!********************************************.


 2-order derivative to be evaluated numerically with 1-order analytical derivatives

 Checking the input file for inconsistencies... 	...done.

--------------------------------------------------------------
User input:
--------------------------------------------------------------
$molecule
0 2
O        -0.4628443119    1.4062765168   -0.3338263962
C         0.0001780212    0.4576397441    0.5699888494
O        -0.9991184032   -0.4100108625    0.9945623619
C         1.1585387697   -0.3123762542   -0.0500006829
O         2.0694287861    0.4823349227   -0.5845675524
O         1.2217330546   -1.5180777080   -0.0011624366
H        -1.0496509914    2.0161099922    0.1307241003
H        -0.6649513630   -1.3165348992    0.9062656099
H         2.7994759286   -0.0533732966   -0.9357000371
H         0.4330768658    0.9910550084    1.4857371922
O         1.2872704652    1.6529693057    2.5904387587
H         2.0679795783    1.7852775305    2.0246481329
$end

$rem
BASIS = 6-311++G(2df,2p)
GUI = 2
JOB_TYPE = Frequency
METHOD = wB97M-V
SOLVENT_METHOD = SMD
SCF_ALGORITHM = DIIS_GDM
MAX_SCF_CYCLES = 400
SCF_CONVERGENCE = 7
THRESH = 12
SYMMETRY_IGNORE = 1
$end

--------------------------------------------------------------
 ----------------------------------------------------------------
             Standard Nuclear Orientation (Angstroms)
    I     Atom           X                Y                Z
 ----------------------------------------------------------------
    1      O      -0.4628443119     1.4062765168    -0.3338263962
    2      C       0.0001780212     0.4576397441     0.5699888494
    3      O      -0.9991184032    -0.4100108625     0.9945623619
    4      C       1.1585387697    -0.3123762542    -0.0500006829
    5      O       2.0694287861     0.4823349227    -0.5845675524
    6      O       1.2217330546    -1.5180777080    -0.0011624366
    7      H      -1.0496509914     2.0161099922     0.1307241003
    8      H      -0.6649513630    -1.3165348992     0.9062656099
    9      H       2.7994759286    -0.0533732966    -0.9357000371
   10      H       0.4330768658     0.9910550084     1.4857371922
   11      O       1.2872704652     1.6529693057     2.5904387587
   12      H       2.0679795783     1.7852775305     2.0246481329
 ----------------------------------------------------------------
 Nuclear Repulsion Energy =         325.39385223 hartrees
 There are       29 alpha and       28 beta electrons
 Requested basis set is 6-311++G(2df,2p)
 There are 86 shells and 288 basis functions

 Total QAlloc Memory Limit 288000 MB
 Mega-Array Size       188 MB
 MEM_STATIC part       192 MB
 
 Citation of the SMD model:
 Marenich, A.V.; Cramer, C.J.; Truhlar, D.G.
 J. Phys. Chem. B 2009, 113, 6378-6396.
 iSolventCode=           1
 Solvent: water                                                           
 
 vradii
            1           2           3           4           5           6
    1   1.5200000   1.8500000   1.5200000   1.8500000   1.5200000   1.5200000
            7           8           9          10          11          12
    1   1.2000000   1.2000000   1.2000000   1.2000000   1.5200000   1.2000000
 Changing PCM_VDW_RADII to SMD_RADIUS
 Discretize the solute cavity surface with Lebedev spheres
	Using 110 Lebedev grid points for each H atom
	Using 194 Lebedev grid points for other atoms
	Atomic van der Waals radii will be scaled by 1.20
 Remove points where switching function is < 1.0e-08
 Keep 1055 surface tesserae and discard 853 interior tesserae
 Molecular Surface Area = 123.845 Angst**2

                       Distance Matrix (Angstroms)
             O (  1)   C (  2)   O (  3)   C (  4)   O (  5)   O (  6)
   C (  2)  1.389670
   O (  3)  2.313246  1.389847
   C (  4)  2.379749  1.522863  2.399193
   O (  5)  2.707203  2.369685  3.564536  1.321760
   O (  6)  3.391211  2.392043  2.674222  1.208344  2.249578
   H (  7)  0.965425  1.929747  2.575817  3.214127  3.548629  4.203220
   H (  8)  2.998729  1.924363  0.970180  2.290829  3.596575  2.103241
   H (  9)  3.624302  3.219364  4.275795  1.882610  0.971209  2.346911
   H ( 10)  2.070240  1.144783  2.062867  2.140962  2.687491  3.021357
   O ( 11)  3.416882  2.677244  3.468470  3.294097  3.473157  4.095880
   H ( 12)  3.480103  2.855601  3.909918  3.087297  2.916448  3.966383
             H (  7)   H (  8)   H (  9)   H ( 10)   O ( 11)
   H (  8)  3.443251
   H (  9)  4.498422  4.121974
   H ( 10)  2.255057  2.620386  3.543167
   O ( 11)  3.412224  3.932628  4.199051  1.545362
   H ( 12)  3.655113  4.282631  3.560812  1.895817  0.973207
 
 A cutoff of  1.0D-12 yielded   3438 shell pairs
 There are     38668 function pairs (     48483 Cartesian)
 Smallest overlap matrix eigenvalue = 4.81E-05
 Guess from superposition of atomic densities
 Warning:  Energy on first SCF cycle will be non-variational
 SAD guess density has 57.000000 electrons

 -----------------------------------------------------------------------
  General SCF calculation program by
  Eric Jon Sundstrom, Paul Horn, Yuezhi Mao, Dmitri Zuev, Alec White,
  David Stuck, Shaama M.S., Shane Yost, Joonho Lee, David Small,
  Daniel Levine, Susi Lehtola, Hugh Burton, Evgeny Epifanovsky,
  Bang C. Huynh
 -----------------------------------------------------------------------
 Exchange:     0.1500 Hartree-Fock + 1.0000 wB97M-V + LR-HF
 Correlation:  1.0000 wB97M-V
 Using SG-2 standard quadrature grid
 Nonlocal Correlation:  VV10 with C = 0.0100 and b = 6.00 and scale = 1.00000
 Grid used for NLC:  SG-1 standard quadrature
 using 8 threads for integral computing
 -------------------------------------------------------
 OpenMP Integral computing Module                
 Release: version 1.0, May 2013, Q-Chem Inc. Pittsburgh 
 -------------------------------------------------------
 
 Citation of the SMD model:
 Marenich, A.V.; Cramer, C.J.; Truhlar, D.G.
 J. Phys. Chem. B 2009, 113, 6378-6396.
 iSolventCode=           1
 Solvent: water                                                           
 
 vradii
            1           2           3           4           5           6
    1   1.5200000   1.8500000   1.5200000   1.8500000   1.5200000   1.5200000
            7           8           9          10          11          12
    1   1.2000000   1.2000000   1.2000000   1.2000000   1.5200000   1.2000000
 -------------------------------------------------------
 OpenMP BLAS3 based DFT computing Module                
 Release: version 1.0, May 2013, Q-Chem Inc. Pittsburgh 
 -------------------------------------------------------
 A unrestricted SCF calculation will be
 performed using DIIS, GDM
 SCF converges when RMS gradient is below 1.0e-07
 ---------------------------------------
  Cycle       Energy         DIIS error
 ---------------------------------------
    1    -456.3696166875      1.48e-02  
    2    -455.0467250687      2.71e-03  Done DIIS. Switching to GDM
 ---------------------------------------
  Cycle       Energy        RMS Gradient
 ---------------------------------------
    1    -455.0467250687      3.28e-01   Descent step
    2    -455.2715668408      7.00e-02   Normal BFGS step
    3    -455.3088580431      6.59e-02   Normal BFGS step
    4    -455.3160004153      1.37e-02   Normal BFGS step
    5    -455.3197838503      1.72e-02   Normal BFGS step
    6    -455.3210443139      9.96e-03   Normal BFGS step
    7    -455.3213451990      4.97e-03   Normal BFGS step
    8    -455.3214329500      1.66e-03   Normal BFGS step
    9    -455.3214573534      8.13e-04   Normal BFGS step
   10    -455.3214597950      4.14e-04   Normal BFGS step
   11    -455.3214607396      2.31e-04   Normal BFGS step
   12    -455.3214610016      2.18e-04   Normal BFGS step
   13    -455.3214611455      1.73e-04   Normal BFGS step
   14    -455.3214612333      1.41e-04   Normal BFGS step
   15    -455.3214613199      1.24e-04   Normal BFGS step
   16    -455.3214613975      8.70e-05   Normal BFGS step
   17    -455.3214614444      2.89e-05   Normal BFGS step
   18    -455.3214614524      7.10e-06   Normal BFGS step
   19    -455.3214614529      3.23e-06   Normal BFGS step
   20    -455.3214614530      1.13e-06   Normal BFGS step
   21    -455.3214614530      4.81e-07   Normal BFGS step
   22    -455.3214614530      1.58e-07   Normal BFGS step
   23    -455.3214614530      4.00e-08  Convergence criterion met
 ---------------------------------------
 SCF time:   CPU 917.19s  wall 116.00s 
<S^2> =          0.756497172
(3)  G-ENP(liq) elect-nuc-pol free energy of system     -455.321461453 a.u.
(4)  G-CDS(liq) cavity-dispersion-solvent structure 
     free energy                                                4.7172 kcal/mol
(6)  G-S(liq) free energy of system                     -455.313944124 a.u.
 SCF   energy in the final basis set =     -455.3139441242
 Total energy in the final basis set =     -455.3139441242
 
 --------------------------------------------------------------
 
                    Orbital Energies (a.u.)
 --------------------------------------------------------------
 
 Alpha MOs
 -- Occupied --
-19.3981 -19.3857 -19.3651 -19.3610 -19.3520 -10.5040 -10.4795  -1.2696
 -1.2203  -1.1813  -1.1533  -1.1341  -0.8654  -0.7494  -0.6878  -0.6714
 -0.6457  -0.6156  -0.5867  -0.5675  -0.5470  -0.5309  -0.5084  -0.4890
 -0.4558  -0.4527  -0.4397  -0.4233  -0.3854
 -- Virtual --
  0.0248   0.0421   0.0504   0.0576   0.0714   0.0825   0.0939   0.1027
  0.1119   0.1233   0.1414   0.1515   0.1562   0.1749   0.2081   0.2109
  0.2209   0.2264   0.2440   0.2555   0.2617   0.2673   0.2800   0.2931
  0.3061   0.3110   0.3212   0.3255   0.3298   0.3322   0.3380   0.3445
  0.3478   0.3558   0.3732   0.3837   0.3927   0.4054   0.4189   0.4242
  0.4482   0.4604   0.4862   0.5495   0.5651   0.5908   0.6096   0.6195
  0.6296   0.6394   0.6594   0.6726   0.7032   0.7104   0.7413   0.7757
  0.8053   0.8310   0.8460   0.8603   0.8924   0.8943   0.9212   0.9450
  0.9644   0.9915   1.0094   1.0419   1.0628   1.0930   1.1105   1.1192
  1.1291   1.1337   1.1504   1.1511   1.1755   1.1802   1.2010   1.2046
  1.2364   1.2505   1.2752   1.2976   1.3356   1.3572   1.3902   1.4007
  1.4103   1.4371   1.4714   1.4900   1.5236   1.5376   1.5788   1.5983
  1.6061   1.6294   1.6531   1.6712   1.7195   1.7297   1.7742   1.8091
  1.8362   1.8530   1.8803   1.8864   1.9431   1.9850   2.0248   2.0804
  2.1539   2.1650   2.2520   2.2689   2.2988   2.3429   2.3677   2.3800
  2.4156   2.4433   2.4518   2.4918   2.5452   2.5610   2.7048   2.7296
  2.7499   2.7868   2.8107   2.8668   2.8918   2.9106   3.0255   3.1200
  3.1658   3.2045   3.2244   3.2789   3.3527   3.3656   3.3936   3.4037
  3.4806   3.4949   3.5331   3.5745   3.6201   3.6580   3.6869   3.7270
  3.7383   3.7670   3.7889   3.8137   3.8579   3.8797   3.8894   3.9209
  3.9296   3.9724   4.0112   4.0734   4.1314   4.1811   4.2123   4.2161
  4.2408   4.2807   4.3095   4.3802   4.3842   4.4391   4.5146   4.7586
  5.0687   5.0780   5.0851   5.1257   5.1337   5.1429   5.1736   5.1852
  5.1909   5.2063   5.2281   5.2372   5.2459   5.2527   5.2688   5.2801
  5.2981   5.3127   5.3342   5.3484   5.3575   5.4192   5.4375   5.4957
  5.5143   5.5508   5.5873   5.5987   5.6145   5.6195   5.6468   5.6584
  5.6764   5.7197   5.7663   5.8926   5.9470   6.0019   6.1009   6.1559
  6.2066   6.4778   6.4950   6.7108   6.7866   6.8747   6.9037   6.9750
  7.0012   7.0076   7.0343   7.0598   7.0762   7.0947   7.1455   7.2037
  7.2317   7.2454   7.2612   7.2833   7.2916   7.3097   7.3515   7.3712
  7.4407   7.4443   7.5040   7.5335   7.6387   7.6627   7.7301   7.7594
  7.7712   7.8090   7.8872   7.8929  24.7860  25.1312  50.4529  50.5680
 50.5847  50.6183  50.7334
 
 Beta MOs
 -- Occupied --
-19.3981 -19.3647 -19.3643 -19.3599 -19.3517 -10.5040 -10.4757  -1.2691
 -1.2178  -1.1807  -1.1512  -1.0791  -0.8606  -0.7454  -0.6833  -0.6654
 -0.6397  -0.6099  -0.5738  -0.5525  -0.5459  -0.5235  -0.4875  -0.4531
 -0.4376  -0.4304  -0.4265  -0.4046
 -- Virtual --
 -0.0814   0.0257   0.0424   0.0506   0.0587   0.0749   0.0835   0.0939
  0.1030   0.1122   0.1243   0.1432   0.1516   0.1576   0.1764   0.2114
  0.2128   0.2232   0.2286   0.2453   0.2559   0.2636   0.2701   0.2806
  0.2940   0.3078   0.3122   0.3221   0.3273   0.3309   0.3335   0.3407
  0.3451   0.3482   0.3571   0.3766   0.3897   0.3948   0.4111   0.4196
  0.4322   0.4493   0.4663   0.4870   0.5509   0.5696   0.5922   0.6129
  0.6214   0.6315   0.6425   0.6611   0.6737   0.7080   0.7119   0.7421
  0.7767   0.8065   0.8320   0.8482   0.8608   0.8951   0.8955   0.9232
  0.9501   0.9658   0.9931   1.0143   1.0440   1.0682   1.0954   1.1124
  1.1201   1.1314   1.1347   1.1517   1.1542   1.1789   1.1963   1.2041
  1.2235   1.2379   1.2514   1.2807   1.3009   1.3396   1.3587   1.3927
  1.4030   1.4152   1.4407   1.4766   1.4914   1.5256   1.5411   1.5882
  1.6088   1.6152   1.6449   1.6560   1.6770   1.7232   1.7384   1.7895
  1.8144   1.8427   1.8561   1.8852   1.8963   1.9451   1.9863   2.0476
  2.0823   2.1561   2.1664   2.2541   2.2738   2.3009   2.3478   2.3720
  2.3835   2.4170   2.4493   2.4611   2.4961   2.5484   2.5621   2.7069
  2.7332   2.7608   2.7922   2.8141   2.8676   2.8931   2.9146   3.0252
  3.1234   3.1681   3.2054   3.2265   3.2807   3.3556   3.3680   3.3947
  3.4067   3.4830   3.4986   3.5341   3.5829   3.6217   3.6611   3.6919
  3.7358   3.7448   3.7720   3.7909   3.8168   3.8600   3.8833   3.8967
  3.9256   3.9392   3.9782   4.0126   4.0754   4.1343   4.1831   4.2129
  4.2242   4.2419   4.2819   4.3095   4.3788   4.3828   4.4307   4.5101
  4.7614   5.0844   5.1207   5.1271   5.1305   5.1384   5.1751   5.1828
  5.1937   5.2086   5.2255   5.2371   5.2424   5.2624   5.2693   5.2780
  5.2889   5.3205   5.3431   5.3447   5.3562   5.4149   5.4229   5.4534
  5.4971   5.5168   5.5527   5.5903   5.6011   5.6158   5.6368   5.6546
  5.6781   5.6977   5.7224   5.7716   5.8937   5.9475   6.0034   6.1027
  6.1571   6.2084   6.4789   6.5005   6.7132   6.7882   6.9047   6.9679
  7.0032   7.0061   7.0345   7.0583   7.0654   7.0921   7.1305   7.1881
  7.2066   7.2348   7.2488   7.2623   7.2881   7.3063   7.3533   7.3619
  7.3801   7.4416   7.4485   7.5073   7.6042   7.6461   7.6651   7.7320
  7.7624   7.7718   7.8108   7.8888   7.8945  24.7892  25.1315  50.4675
 50.5686  50.5851  50.6190  50.7336
 --------------------------------------------------------------
 
          Ground-State Mulliken Net Atomic Charges

     Atom                 Charge (a.u.)    Spin (a.u.)
  --------------------------------------------------------
      1 O                    -0.360200       0.026857
      2 C                    -0.224904       0.167620
      3 O                    -0.387674       0.033533
      4 C                     0.410702      -0.003305
      5 O                    -0.281742       0.000568
      6 O                    -0.461977       0.009198
      7 H                     0.354101       0.000282
      8 H                     0.315782       0.001922
      9 H                     0.365299       0.000052
     10 H                     0.384182      -0.027485
     11 O                    -0.444366       0.802762
     12 H                     0.330797      -0.012004
  --------------------------------------------------------
  Sum of atomic charges =    -0.000000
  Sum of spin   charges =     1.000000

 -----------------------------------------------------------------
                    Cartesian Multipole Moments
 -----------------------------------------------------------------
    Charge (ESU x 10^10)
                -0.0000
    Dipole Moment (Debye)
         X       2.9198      Y       1.2300      Z      -1.4737
       Tot       3.4943
    Quadrupole Moments (Debye-Ang)
        XX     -29.8897     XY       0.9498     YY     -41.9547
        XZ      -2.1380     YZ      -0.1508     ZZ     -49.2449
    Octopole Moments (Debye-Ang^2)
       XXX     -30.6888    XXY       0.8440    XYY     -38.6604
       YYY     -24.7007    XXZ     -26.1216    XYZ       3.4687
       YYZ     -17.9317    XZZ     -22.3278    YZZ     -24.9258
       ZZZ     -91.0497
    Hexadecapole Moments (Debye-Ang^3)
      XXXX    -277.4119   XXXY      -3.5358   XXYY    -107.0748
      XYYY     -11.2787   YYYY    -328.1505   XXXZ     -37.0226
      XXYZ      -0.1700   XYYZ      -5.0703   YYYZ     -75.9817
      XXZZ    -109.5635   XYZZ      -7.3422   YYZZ    -133.1802
      XZZZ     -48.0255   YZZZ    -101.1963   ZZZZ    -444.3140
 -----------------------------------------------------------------
 Calculating analytic gradient of the SCF energy
 Gradient of CDS energy
            1           2           3           4           5           6
    1   0.0017073  -0.0060827   0.0040411   0.0024189  -0.0021295   0.0000063
    2  -0.0035671   0.0000786   0.0036931  -0.0001649  -0.0016397   0.0012314
    3   0.0033500  -0.0011151  -0.0018141  -0.0014747   0.0011170  -0.0000859
            7           8           9          10          11          12
    1  -0.0002635  -0.0002577   0.0003766   0.0001232  -0.0003167   0.0003766
    2   0.0004173  -0.0003105   0.0000182   0.0000130  -0.0000558   0.0002865
    3  -0.0000877   0.0001415  -0.0002005  -0.0000959   0.0001193   0.0001461
 Gradient of SCF Energy
            1           2           3           4           5           6
    1   0.0075948  -0.0026473  -0.0056116  -0.0013127  -0.0144628  -0.0000783
    2  -0.0077073  -0.0033039   0.0047324   0.0046791   0.0129793  -0.0104181
    3  -0.0091864  -0.0036628   0.0012540   0.0033440   0.0030227   0.0000134
            7           8           9          10          11          12
    1  -0.0068587   0.0019889   0.0171511   0.0043776  -0.0125130   0.0123720
    2   0.0089190  -0.0049615  -0.0083704   0.0035241  -0.0012875   0.0012149
    3   0.0069677  -0.0000009  -0.0068372   0.0017588   0.0130775  -0.0097508
 Max gradient component =       1.715E-02
 RMS gradient           =       7.540E-03
 Computing fast CPCM-SWIG gradient
 Updating gradient with PCM contributions...
 -- total gradient after adding PCM contribution --
---------------------------------------------------
  Atom         X              Y              Z     
---------------------------------------------------
   1       0.000063       0.000089       0.000059
   2      -0.000192      -0.000285       0.000181
   3      -0.000027      -0.000011      -0.000057
   4       0.000072       0.000083      -0.000149
   5       0.000134       0.000132      -0.000036
   6      -0.000018      -0.000001       0.000038
   7      -0.000036      -0.000026       0.000033
   8       0.000057      -0.000041       0.000078
   9      -0.000130      -0.000014       0.000022
  10       0.000083       0.000238      -0.000105
  11       0.000233      -0.000091      -0.000117
  12      -0.000239      -0.000073       0.000052
---------------------------------------------------
 Number of fixed atoms: 0
 Gradient time:  CPU 101.24 s  wall 15.26 s
 ######################################################
 ######################################################
 # Starting finite difference calculation for IDERIV  #
 Finite diff step size:  1.88973e-03 a.u.
 ----------------------------------------------------------------
             Standard Nuclear Orientation (Angstroms)
    I     Atom           X                Y                Z
 ----------------------------------------------------------------
    1      O      -0.4618443119     1.4062765168    -0.3338263962
    2      C       0.0001780212     0.4576397441     0.5699888494
    3      O      -0.9991184032    -0.4100108625     0.9945623619
    4      C       1.1585387697    -0.3123762542    -0.0500006829
    5      O       2.0694287861     0.4823349227    -0.5845675524
    6      O       1.2217330546    -1.5180777080    -0.0011624366
    7      H      -1.0496509914     2.0161099922     0.1307241003
    8      H      -0.6649513630    -1.3165348992     0.9062656099
    9      H       2.7994759286    -0.0533732966    -0.9357000371
   10      H       0.4330768658     0.9910550084     1.4857371922
   11      O       1.2872704652     1.6529693057     2.5904387587
   12      H       2.0679795783     1.7852775305     2.0246481329
 ----------------------------------------------------------------
 Nuclear Repulsion Energy =         325.40527101 hartrees
 There are       29 alpha and       28 beta electrons
 Discretize the solute cavity surface with Lebedev spheres
	Using 110 Lebedev grid points for each H atom
	Using 194 Lebedev grid points for other atoms
	Atomic van der Waals radii will be scaled by 1.20
 Remove points where switching function is < 1.0e-08
 Keep 1055 surface tesserae and discard 853 interior tesserae
 Molecular Surface Area = 123.843 Angst**2

                       Distance Matrix (Angstroms)
             O (  1)   C (  2)   O (  3)   C (  4)   O (  5)   O (  6)
   C (  2)  1.389337
   O (  3)  2.313478  1.389847
   C (  4)  2.379068  1.522863  2.399193
   O (  5)  2.706267  2.369685  3.564536  1.321760
   O (  6)  3.390715  2.392043  2.674222  1.208344  2.249578
   H (  7)  0.966034  1.929747  2.575817  3.214127  3.548629  4.203220
   H (  8)  2.998797  1.924363  0.970180  2.290829  3.596575  2.103241
   H (  9)  3.623402  3.219364  4.275795  1.882610  0.971209  2.346911
   H ( 10)  2.069808  1.144783  2.062867  2.140962  2.687491  3.021357
   O ( 11)  3.416370  2.677244  3.468470  3.294097  3.473157  4.095880
   H ( 12)  3.479375  2.855601  3.909918  3.087297  2.916448  3.966383
             H (  7)   H (  8)   H (  9)   H ( 10)   O ( 11)
   H (  8)  3.443251
   H (  9)  4.498422  4.121974
   H ( 10)  2.255057  2.620386  3.543167
   O ( 11)  3.412224  3.932628  4.199051  1.545362
   H ( 12)  3.655113  4.282631  3.560812  1.895817  0.973207
 
 Requested basis set is 6-311++G(2df,2p)
 There are 86 shells and 288 basis functions
 A cutoff of  1.0D-12 yielded   3438 shell pairs
 There are     38668 function pairs (     48483 Cartesian)
 Smallest overlap matrix eigenvalue = 4.81E-05
 Guess MOs from SCF MO coefficient file

 -----------------------------------------------------------------------
  General SCF calculation program by
  Eric Jon Sundstrom, Paul Horn, Yuezhi Mao, Dmitri Zuev, Alec White,
  David Stuck, Shaama M.S., Shane Yost, Joonho Lee, David Small,
  Daniel Levine, Susi Lehtola, Hugh Burton, Evgeny Epifanovsky,
  Bang C. Huynh
 -----------------------------------------------------------------------
 Exchange:     0.1500 Hartree-Fock + 1.0000 wB97M-V + LR-HF
 Correlation:  1.0000 wB97M-V
 Using SG-2 standard quadrature grid
 Nonlocal Correlation:  VV10 with C = 0.0100 and b = 6.00 and scale = 1.00000
 Grid used for NLC:  SG-1 standard quadrature
 
 Citation of the SMD model:
 Marenich, A.V.; Cramer, C.J.; Truhlar, D.G.
 J. Phys. Chem. B 2009, 113, 6378-6396.
 iSolventCode=           1
 Solvent: water                                                           
 
 vradii
            1           2           3           4           5           6
    1   1.5200000   1.8500000   1.5200000   1.8500000   1.5200000   1.5200000
            7           8           9          10          11          12
    1   1.2000000   1.2000000   1.2000000   1.2000000   1.5200000   1.2000000
 -------------------------------------------------------
 OpenMP BLAS3 based DFT computing Module                
 Release: version 1.0, May 2013, Q-Chem Inc. Pittsburgh 
 -------------------------------------------------------
 A unrestricted SCF calculation will be
 performed using Roothaan-Hall, DIIS, GDM
 SCF converges when RMS gradient is below 1.0e-07
 ---------------------------------------
  Cycle       Energy         DIIS error
 ---------------------------------------
    1    -455.2800804396      2.79e-04  Roothaan Step
 ---------------------------------------
  Cycle       Energy         DIIS error
 ---------------------------------------
    1    -455.3157567204      3.12e-04  
    2    -455.3194553186      2.67e-04  Done DIIS. Switching to GDM
 ---------------------------------------
  Cycle       Energy        RMS Gradient
 ---------------------------------------
    1    -455.3194553186      1.33e-02   Normal BFGS step
    2    -455.3189490483      2.25e-02  Line search: overstep
    3    -455.3213283857      3.44e-03   Normal BFGS step
    4    -455.3214406385      9.48e-04   Normal BFGS step
    5    -455.3214576362      7.92e-04   Normal BFGS step
    6    -455.3214636623      1.91e-04   Normal BFGS step
    7    -455.3214639407      1.14e-04   Normal BFGS step
    8    -455.3214640199      7.57e-05   Normal BFGS step
    9    -455.3214640380      3.59e-05   Normal BFGS step
   10    -455.3214640421      1.31e-05   Normal BFGS step
   11    -455.3214640432      5.13e-06   Normal BFGS step
   12    -455.3214640434      2.57e-06   Normal BFGS step
   13    -455.3214640434      2.29e-06   Normal BFGS step
   14    -455.3214640434      2.31e-06   Normal BFGS step
   15    -455.3214640434      1.61e-06   Normal BFGS step
   16    -455.3214640435      7.32e-07   Normal BFGS step
   17    -455.3214640435      3.55e-07   Normal BFGS step
   18    -455.3214640435      1.41e-07   Normal BFGS step
   19    -455.3214640435      1.10e-07   Normal BFGS step
   20    -455.3214640435      5.15e-08  Convergence criterion met
 ---------------------------------------
 SCF time:   CPU 815.72s  wall 103.00s 
<S^2> =          0.756500244
(3)  G-ENP(liq) elect-nuc-pol free energy of system     -455.321464043 a.u.
(4)  G-CDS(liq) cavity-dispersion-solvent structure 
     free energy                                                4.7192 kcal/mol
(6)  G-S(liq) free energy of system                     -455.313943486 a.u.
 SCF   energy in the final basis set =     -455.3139434858
 Total energy in the final basis set =     -455.3139434858
 
 --------------------------------------------------------------
 
                    Orbital Energies (a.u.)
 --------------------------------------------------------------
 
 Alpha MOs
 -- Occupied --
-19.3981 -19.3857 -19.3652 -19.3610 -19.3519 -10.5040 -10.4795  -1.2696
 -1.2203  -1.1813  -1.1533  -1.1341  -0.8654  -0.7494  -0.6879  -0.6713
 -0.6457  -0.6156  -0.5866  -0.5674  -0.5469  -0.5310  -0.5084  -0.4890
 -0.4558  -0.4527  -0.4397  -0.4233  -0.3853
 -- Virtual --
  0.0248   0.0420   0.0504   0.0576   0.0714   0.0825   0.0939   0.1027
  0.1119   0.1233   0.1414   0.1515   0.1562   0.1749   0.2081   0.2109
  0.2209   0.2264   0.2440   0.2555   0.2617   0.2673   0.2799   0.2931
  0.3061   0.3110   0.3212   0.3255   0.3298   0.3323   0.3380   0.3445
  0.3478   0.3558   0.3732   0.3837   0.3927   0.4054   0.4189   0.4242
  0.4482   0.4604   0.4862   0.5494   0.5651   0.5908   0.6095   0.6195
  0.6296   0.6394   0.6594   0.6725   0.7031   0.7105   0.7413   0.7758
  0.8053   0.8310   0.8460   0.8603   0.8923   0.8943   0.9212   0.9450
  0.9644   0.9915   1.0094   1.0419   1.0628   1.0931   1.1105   1.1191
  1.1292   1.1337   1.1505   1.1511   1.1755   1.1803   1.2010   1.2046
  1.2365   1.2506   1.2752   1.2976   1.3356   1.3572   1.3902   1.4007
  1.4104   1.4372   1.4714   1.4900   1.5236   1.5373   1.5788   1.5983
  1.6060   1.6294   1.6530   1.6713   1.7196   1.7297   1.7742   1.8090
  1.8363   1.8530   1.8803   1.8864   1.9429   1.9849   2.0249   2.0804
  2.1540   2.1650   2.2521   2.2690   2.2989   2.3429   2.3680   2.3802
  2.4156   2.4434   2.4518   2.4919   2.5453   2.5611   2.7049   2.7296
  2.7499   2.7866   2.8108   2.8668   2.8918   2.9106   3.0255   3.1200
  3.1658   3.2045   3.2245   3.2790   3.3527   3.3656   3.3936   3.4037
  3.4806   3.4950   3.5332   3.5744   3.6201   3.6580   3.6869   3.7270
  3.7383   3.7671   3.7889   3.8137   3.8579   3.8797   3.8894   3.9210
  3.9296   3.9724   4.0112   4.0734   4.1312   4.1810   4.2122   4.2161
  4.2407   4.2805   4.3093   4.3797   4.3841   4.4392   4.5146   4.7586
  5.0687   5.0780   5.0851   5.1257   5.1337   5.1430   5.1736   5.1853
  5.1909   5.2063   5.2281   5.2372   5.2459   5.2528   5.2687   5.2802
  5.2981   5.3127   5.3342   5.3484   5.3575   5.4191   5.4375   5.4957
  5.5143   5.5508   5.5870   5.5982   5.6143   5.6195   5.6468   5.6584
  5.6763   5.7195   5.7662   5.8923   5.9470   6.0020   6.1013   6.1560
  6.2072   6.4781   6.4953   6.7112   6.7867   6.8747   6.9037   6.9750
  7.0012   7.0076   7.0343   7.0597   7.0763   7.0947   7.1455   7.2037
  7.2318   7.2437   7.2612   7.2834   7.2916   7.3092   7.3514   7.3711
  7.4407   7.4440   7.5040   7.5335   7.6386   7.6628   7.7300   7.7595
  7.7712   7.8090   7.8873   7.8932  24.7866  25.1312  50.4529  50.5678
 50.5847  50.6182  50.7334
 
 Beta MOs
 -- Occupied --
-19.3981 -19.3647 -19.3643 -19.3599 -19.3517 -10.5040 -10.4757  -1.2691
 -1.2178  -1.1807  -1.1512  -1.0791  -0.8606  -0.7454  -0.6833  -0.6653
 -0.6398  -0.6099  -0.5738  -0.5525  -0.5459  -0.5235  -0.4875  -0.4530
 -0.4376  -0.4304  -0.4265  -0.4045
 -- Virtual --
 -0.0813   0.0257   0.0424   0.0506   0.0587   0.0749   0.0835   0.0939
  0.1030   0.1122   0.1243   0.1432   0.1516   0.1576   0.1763   0.2114
  0.2128   0.2232   0.2285   0.2453   0.2559   0.2636   0.2702   0.2805
  0.2940   0.3078   0.3122   0.3221   0.3273   0.3309   0.3335   0.3407
  0.3452   0.3482   0.3571   0.3766   0.3897   0.3948   0.4112   0.4196
  0.4322   0.4493   0.4663   0.4870   0.5508   0.5696   0.5922   0.6128
  0.6214   0.6316   0.6425   0.6611   0.6736   0.7080   0.7119   0.7422
  0.7768   0.8065   0.8320   0.8482   0.8608   0.8950   0.8955   0.9231
  0.9501   0.9658   0.9931   1.0143   1.0440   1.0681   1.0954   1.1124
  1.1201   1.1315   1.1347   1.1518   1.1542   1.1789   1.1963   1.2040
  1.2235   1.2379   1.2515   1.2808   1.3009   1.3396   1.3587   1.3927
  1.4030   1.4152   1.4408   1.4766   1.4914   1.5256   1.5408   1.5882
  1.6088   1.6152   1.6449   1.6559   1.6771   1.7234   1.7383   1.7895
  1.8143   1.8427   1.8562   1.8852   1.8963   1.9450   1.9862   2.0477
  2.0824   2.1562   2.1664   2.2542   2.2739   2.3010   2.3478   2.3723
  2.3836   2.4170   2.4494   2.4612   2.4963   2.5485   2.5622   2.7070
  2.7332   2.7607   2.7920   2.8141   2.8676   2.8931   2.9145   3.0252
  3.1234   3.1681   3.2054   3.2266   3.2808   3.3556   3.3680   3.3947
  3.4067   3.4830   3.4986   3.5342   3.5827   3.6217   3.6612   3.6920
  3.7359   3.7447   3.7721   3.7909   3.8168   3.8600   3.8833   3.8967
  3.9258   3.9391   3.9781   4.0126   4.0754   4.1340   4.1830   4.2129
  4.2242   4.2418   4.2817   4.3092   4.3786   4.3825   4.4307   4.5101
  4.7613   5.0844   5.1207   5.1272   5.1305   5.1384   5.1751   5.1828
  5.1938   5.2087   5.2255   5.2370   5.2424   5.2624   5.2693   5.2780
  5.2890   5.3205   5.3431   5.3447   5.3561   5.4149   5.4228   5.4534
  5.4971   5.5168   5.5528   5.5900   5.6007   5.6155   5.6368   5.6546
  5.6781   5.6978   5.7223   5.7716   5.8934   5.9474   6.0034   6.1031
  6.1572   6.2090   6.4792   6.5008   6.7136   6.7883   6.9047   6.9680
  7.0033   7.0062   7.0345   7.0582   7.0654   7.0921   7.1306   7.1881
  7.2067   7.2348   7.2471   7.2623   7.2881   7.3058   7.3532   7.3620
  7.3799   7.4416   7.4482   7.5073   7.6042   7.6460   7.6652   7.7319
  7.7624   7.7718   7.8108   7.8888   7.8948  24.7898  25.1316  50.4675
 50.5684  50.5851  50.6190  50.7336
 --------------------------------------------------------------
 
          Ground-State Mulliken Net Atomic Charges

     Atom                 Charge (a.u.)    Spin (a.u.)
  --------------------------------------------------------
      1 O                    -0.360132       0.026929
      2 C                    -0.224768       0.167676
      3 O                    -0.387719       0.033552
      4 C                     0.410613      -0.003313
      5 O                    -0.281778       0.000566
      6 O                    -0.462016       0.009200
      7 H                     0.354299       0.000285
      8 H                     0.315806       0.001924
      9 H                     0.365293       0.000052
     10 H                     0.384134      -0.027468
     11 O                    -0.444516       0.802598
     12 H                     0.330784      -0.012002
  --------------------------------------------------------
  Sum of atomic charges =    -0.000000
  Sum of spin   charges =     1.000000

 -----------------------------------------------------------------
                    Cartesian Multipole Moments
 -----------------------------------------------------------------
    Charge (ESU x 10^10)
                -0.0000
    Dipole Moment (Debye)
         X       2.9150      Y       1.2305      Z      -1.4765
       Tot       3.4915
    Quadrupole Moments (Debye-Ang)
        XX     -29.8895     XY       0.9440     YY     -41.9556
        XZ      -2.1400     YZ      -0.1556     ZZ     -49.2511
    Octopole Moments (Debye-Ang^2)
       XXX     -30.7153    XXY       0.8453    XYY     -38.6770
       YYY     -24.7022    XXZ     -26.1280    XYZ       3.4651
       YYZ     -17.9400    XZZ     -22.3438    YZZ     -24.9355
       ZZZ     -91.0696
    Hexadecapole Moments (Debye-Ang^3)
      XXXX    -277.3930   XXXY      -3.5689   XXYY    -107.0734
      XYYY     -11.3158   YYYY    -328.1650   XXXZ     -37.0249
      XXYZ      -0.1806   XYYZ      -5.0759   YYYZ     -76.0014
      XXZZ    -109.5751   XYZZ      -7.3652   YYZZ    -133.1989
      XZZZ     -48.0474   YZZZ    -101.2308   ZZZZ    -444.3764
 -----------------------------------------------------------------
 Calculating analytic gradient of the SCF energy
 Gradient of CDS energy
            1           2           3           4           5           6
    1   0.0017099  -0.0060861   0.0040416   0.0024187  -0.0021291   0.0000063
    2  -0.0035790   0.0000908   0.0036933  -0.0001652  -0.0016396   0.0012314
    3   0.0033618  -0.0011275  -0.0018140  -0.0014744   0.0011169  -0.0000859
            7           8           9          10          11          12
    1  -0.0002634  -0.0002577   0.0003766   0.0001232  -0.0003167   0.0003766
    2   0.0004168  -0.0003105   0.0000182   0.0000132  -0.0000558   0.0002865
    3  -0.0000874   0.0001415  -0.0002005  -0.0000960   0.0001193   0.0001461
 Gradient of SCF Energy
            1           2           3           4           5           6
    1   0.0081697  -0.0028389  -0.0055769  -0.0013310  -0.0144674  -0.0000825
    2  -0.0082182  -0.0031688   0.0046876   0.0047098   0.0129809  -0.0104012
    3  -0.0093815  -0.0037301   0.0012850   0.0032894   0.0030284   0.0000232
            7           8           9          10          11          12
    1  -0.0072258   0.0019824   0.0171490   0.0043502  -0.0124982   0.0123692
    2   0.0092751  -0.0049638  -0.0083679   0.0035316  -0.0012815   0.0012164
    3   0.0072797   0.0000032  -0.0068368   0.0017014   0.0130843  -0.0097463
 Max gradient component =       1.715E-02
 RMS gradient           =       7.606E-03
 Computing fast CPCM-SWIG gradient
 Updating gradient with PCM contributions...
 -- total gradient after adding PCM contribution --
---------------------------------------------------
  Atom         X              Y              Z     
---------------------------------------------------
   1       0.000613      -0.000419      -0.000135
   2      -0.000386      -0.000152       0.000106
   3       0.000005      -0.000052      -0.000030
   4       0.000055       0.000114      -0.000198
   5       0.000128       0.000136      -0.000031
   6      -0.000023       0.000012       0.000047
   7      -0.000383       0.000326       0.000345
   8       0.000053      -0.000043       0.000084
   9      -0.000128      -0.000014       0.000021
  10       0.000062       0.000247      -0.000155
  11       0.000240      -0.000085      -0.000106
  12      -0.000235      -0.000071       0.000052
---------------------------------------------------
 Number of fixed atoms: 0
 Gradient time:  CPU 103.09 s  wall 15.46 s
 ----------------------------------------------------------------
             Standard Nuclear Orientation (Angstroms)
    I     Atom           X                Y                Z
 ----------------------------------------------------------------
    1      O      -0.4638443119     1.4062765168    -0.3338263962
    2      C       0.0001780212     0.4576397441     0.5699888494
    3      O      -0.9991184032    -0.4100108625     0.9945623619
    4      C       1.1585387697    -0.3123762542    -0.0500006829
    5      O       2.0694287861     0.4823349227    -0.5845675524
    6      O       1.2217330546    -1.5180777080    -0.0011624366
    7      H      -1.0496509914     2.0161099922     0.1307241003
    8      H      -0.6649513630    -1.3165348992     0.9062656099
    9      H       2.7994759286    -0.0533732966    -0.9357000371
   10      H       0.4330768658     0.9910550084     1.4857371922
   11      O       1.2872704652     1.6529693057     2.5904387587
   12      H       2.0679795783     1.7852775305     2.0246481329
 ----------------------------------------------------------------
 Nuclear Repulsion Energy =         325.38242829 hartrees
 There are       29 alpha and       28 beta electrons
 Discretize the solute cavity surface with Lebedev spheres
	Using 110 Lebedev grid points for each H atom
	Using 194 Lebedev grid points for other atoms
	Atomic van der Waals radii will be scaled by 1.20
 Remove points where switching function is < 1.0e-08
 Keep 1055 surface tesserae and discard 853 interior tesserae
 Molecular Surface Area = 123.847 Angst**2

                       Distance Matrix (Angstroms)
             O (  1)   C (  2)   O (  3)   C (  4)   O (  5)   O (  6)
   C (  2)  1.390004
   O (  3)  2.313014  1.389847
   C (  4)  2.380431  1.522863  2.399193
   O (  5)  2.708138  2.369685  3.564536  1.321760
   O (  6)  3.391708  2.392043  2.674222  1.208344  2.249578
   H (  7)  0.964818  1.929747  2.575817  3.214127  3.548629  4.203220
   H (  8)  2.998662  1.924363  0.970180  2.290829  3.596575  2.103241
   H (  9)  3.625202  3.219364  4.275795  1.882610  0.971209  2.346911
   H ( 10)  2.070673  1.144783  2.062867  2.140962  2.687491  3.021357
   O ( 11)  3.417395  2.677244  3.468470  3.294097  3.473157  4.095880
   H ( 12)  3.480830  2.855601  3.909918  3.087297  2.916448  3.966383
             H (  7)   H (  8)   H (  9)   H ( 10)   O ( 11)
   H (  8)  3.443251
   H (  9)  4.498422  4.121974
   H ( 10)  2.255057  2.620386  3.543167
   O ( 11)  3.412224  3.932628  4.199051  1.545362
   H ( 12)  3.655113  4.282631  3.560812  1.895817  0.973207
 
 Requested basis set is 6-311++G(2df,2p)
 There are 86 shells and 288 basis functions
 A cutoff of  1.0D-12 yielded   3438 shell pairs
 There are     38668 function pairs (     48483 Cartesian)
 Smallest overlap matrix eigenvalue = 4.81E-05
 Guess MOs from SCF MO coefficient file

 -----------------------------------------------------------------------
  General SCF calculation program by
  Eric Jon Sundstrom, Paul Horn, Yuezhi Mao, Dmitri Zuev, Alec White,
  David Stuck, Shaama M.S., Shane Yost, Joonho Lee, David Small,
  Daniel Levine, Susi Lehtola, Hugh Burton, Evgeny Epifanovsky,
  Bang C. Huynh
 -----------------------------------------------------------------------
 Exchange:     0.1500 Hartree-Fock + 1.0000 wB97M-V + LR-HF
 Correlation:  1.0000 wB97M-V
 Using SG-2 standard quadrature grid
 Nonlocal Correlation:  VV10 with C = 0.0100 and b = 6.00 and scale = 1.00000
 Grid used for NLC:  SG-1 standard quadrature
 
 Citation of the SMD model:
 Marenich, A.V.; Cramer, C.J.; Truhlar, D.G.
 J. Phys. Chem. B 2009, 113, 6378-6396.
 iSolventCode=           1
 Solvent: water                                                           
 
 vradii
            1           2           3           4           5           6
    1   1.5200000   1.8500000   1.5200000   1.8500000   1.5200000   1.5200000
            7           8           9          10          11          12
    1   1.2000000   1.2000000   1.2000000   1.2000000   1.5200000   1.2000000
 -------------------------------------------------------
 OpenMP BLAS3 based DFT computing Module                
 Release: version 1.0, May 2013, Q-Chem Inc. Pittsburgh 
 -------------------------------------------------------
 A unrestricted SCF calculation will be
 performed using Roothaan-Hall, DIIS, GDM
 SCF converges when RMS gradient is below 1.0e-07
 ---------------------------------------
  Cycle       Energy         DIIS error
 ---------------------------------------
    1    -455.2800777719      2.79e-04  Roothaan Step
 ---------------------------------------
  Cycle       Energy         DIIS error
 ---------------------------------------
    1    -455.3157485760      3.12e-04  
    2    -455.3194516192      2.66e-04  Done DIIS. Switching to GDM
 ---------------------------------------
  Cycle       Energy        RMS Gradient
 ---------------------------------------
    1    -455.3194516192      1.33e-02   Normal BFGS step
    2    -455.3189444232      2.26e-02  Line search: overstep
    3    -455.3213219321      3.44e-03   Normal BFGS step
    4    -455.3214344155      9.52e-04   Normal BFGS step
    5    -455.3214514227      7.90e-04   Normal BFGS step
    6    -455.3214574410      1.86e-04   Normal BFGS step
    7    -455.3214577233      1.10e-04   Normal BFGS step
    8    -455.3214578040      7.23e-05   Normal BFGS step
    9    -455.3214578228      3.32e-05   Normal BFGS step
   10    -455.3214578271      1.33e-05   Normal BFGS step
   11    -455.3214578282      5.20e-06   Normal BFGS step
   12    -455.3214578283      3.51e-06   Normal BFGS step
   13    -455.3214578284      3.06e-06   Normal BFGS step
   14    -455.3214578284      2.20e-06   Normal BFGS step
   15    -455.3214578284      1.23e-06   Normal BFGS step
   16    -455.3214578284      1.14e-06   Normal BFGS step
   17    -455.3214578284      4.79e-07   Normal BFGS step
   18    -455.3214578284      2.30e-07   Normal BFGS step
   19    -455.3214578284      1.47e-07   Normal BFGS step
   20    -455.3214578284      5.07e-08  Convergence criterion met
 ---------------------------------------
 SCF time:   CPU 824.13s  wall 104.00s 
<S^2> =          0.756494103
(3)  G-ENP(liq) elect-nuc-pol free energy of system     -455.321457828 a.u.
(4)  G-CDS(liq) cavity-dispersion-solvent structure 
     free energy                                                4.7152 kcal/mol
(6)  G-S(liq) free energy of system                     -455.313943723 a.u.
 SCF   energy in the final basis set =     -455.3139437232
 Total energy in the final basis set =     -455.3139437232
 
 --------------------------------------------------------------
 
                    Orbital Energies (a.u.)
 --------------------------------------------------------------
 
 Alpha MOs
 -- Occupied --
-19.3981 -19.3858 -19.3650 -19.3610 -19.3520 -10.5041 -10.4795  -1.2696
 -1.2202  -1.1813  -1.1532  -1.1342  -0.8655  -0.7495  -0.6878  -0.6714
 -0.6457  -0.6156  -0.5867  -0.5675  -0.5470  -0.5309  -0.5084  -0.4891
 -0.4558  -0.4527  -0.4397  -0.4233  -0.3854
 -- Virtual --
  0.0248   0.0421   0.0504   0.0576   0.0714   0.0825   0.0939   0.1027
  0.1119   0.1233   0.1414   0.1515   0.1562   0.1749   0.2081   0.2109
  0.2209   0.2265   0.2440   0.2555   0.2617   0.2672   0.2800   0.2931
  0.3061   0.3110   0.3212   0.3255   0.3298   0.3322   0.3380   0.3444
  0.3478   0.3558   0.3732   0.3837   0.3927   0.4054   0.4189   0.4242
  0.4482   0.4604   0.4862   0.5496   0.5651   0.5908   0.6097   0.6195
  0.6295   0.6394   0.6593   0.6726   0.7033   0.7104   0.7412   0.7757
  0.8053   0.8310   0.8460   0.8603   0.8925   0.8942   0.9213   0.9450
  0.9644   0.9914   1.0094   1.0419   1.0628   1.0930   1.1105   1.1192
  1.1290   1.1337   1.1504   1.1511   1.1754   1.1802   1.2010   1.2046
  1.2364   1.2504   1.2751   1.2976   1.3356   1.3572   1.3903   1.4007
  1.4103   1.4370   1.4714   1.4900   1.5236   1.5379   1.5787   1.5983
  1.6061   1.6294   1.6531   1.6712   1.7194   1.7297   1.7743   1.8091
  1.8362   1.8530   1.8803   1.8864   1.9432   1.9851   2.0248   2.0804
  2.1539   2.1651   2.2519   2.2688   2.2986   2.3429   2.3674   2.3798
  2.4155   2.4432   2.4518   2.4917   2.5451   2.5609   2.7048   2.7296
  2.7500   2.7870   2.8107   2.8668   2.8918   2.9107   3.0256   3.1200
  3.1658   3.2045   3.2244   3.2787   3.3527   3.3655   3.3936   3.4038
  3.4806   3.4949   3.5331   3.5747   3.6201   3.6579   3.6869   3.7270
  3.7384   3.7670   3.7889   3.8137   3.8579   3.8797   3.8893   3.9207
  3.9296   3.9725   4.0112   4.0734   4.1316   4.1812   4.2123   4.2161
  4.2409   4.2808   4.3098   4.3807   4.3842   4.4391   4.5146   4.7586
  5.0686   5.0780   5.0850   5.1257   5.1337   5.1429   5.1736   5.1851
  5.1909   5.2062   5.2282   5.2372   5.2458   5.2526   5.2688   5.2800
  5.2980   5.3127   5.3342   5.3484   5.3575   5.4194   5.4375   5.4957
  5.5142   5.5508   5.5875   5.5992   5.6147   5.6195   5.6468   5.6584
  5.6764   5.7198   5.7663   5.8930   5.9471   6.0019   6.1004   6.1558
  6.2060   6.4775   6.4947   6.7105   6.7865   6.8746   6.9037   6.9749
  7.0012   7.0076   7.0343   7.0600   7.0761   7.0947   7.1454   7.2037
  7.2317   7.2470   7.2612   7.2833   7.2917   7.3103   7.3516   7.3713
  7.4407   7.4447   7.5040   7.5335   7.6388   7.6626   7.7301   7.7594
  7.7712   7.8090   7.8872   7.8926  24.7855  25.1311  50.4528  50.5682
 50.5848  50.6183  50.7334
 
 Beta MOs
 -- Occupied --
-19.3981 -19.3647 -19.3642 -19.3599 -19.3517 -10.5040 -10.4757  -1.2691
 -1.2178  -1.1807  -1.1512  -1.0791  -0.8607  -0.7454  -0.6832  -0.6655
 -0.6397  -0.6099  -0.5739  -0.5525  -0.5459  -0.5234  -0.4875  -0.4531
 -0.4376  -0.4304  -0.4265  -0.4046
 -- Virtual --
 -0.0814   0.0257   0.0424   0.0506   0.0587   0.0749   0.0835   0.0939
  0.1030   0.1122   0.1243   0.1432   0.1516   0.1576   0.1764   0.2114
  0.2129   0.2232   0.2286   0.2453   0.2559   0.2636   0.2701   0.2806
  0.2940   0.3078   0.3122   0.3221   0.3273   0.3309   0.3334   0.3407
  0.3451   0.3482   0.3572   0.3766   0.3897   0.3948   0.4111   0.4196
  0.4322   0.4494   0.4663   0.4870   0.5509   0.5696   0.5922   0.6130
  0.6214   0.6315   0.6425   0.6611   0.6737   0.7081   0.7119   0.7421
  0.7766   0.8065   0.8320   0.8482   0.8608   0.8951   0.8956   0.9232
  0.9501   0.9658   0.9931   1.0143   1.0440   1.0682   1.0954   1.1124
  1.1202   1.1313   1.1347   1.1517   1.1542   1.1789   1.1963   1.2041
  1.2235   1.2378   1.2513   1.2807   1.3009   1.3396   1.3587   1.3928
  1.4029   1.4151   1.4406   1.4767   1.4914   1.5256   1.5414   1.5882
  1.6088   1.6152   1.6448   1.6560   1.6770   1.7231   1.7384   1.7895
  1.8144   1.8427   1.8561   1.8852   1.8963   1.9453   1.9864   2.0476
  2.0823   2.1561   2.1665   2.2540   2.2738   2.3008   2.3478   2.3716
  2.3833   2.4169   2.4493   2.4611   2.4960   2.5483   2.5621   2.7069
  2.7332   2.7610   2.7923   2.8140   2.8676   2.8931   2.9146   3.0253
  3.1234   3.1681   3.2054   3.2265   3.2805   3.3556   3.3679   3.3947
  3.4068   3.4830   3.4985   3.5340   3.5830   3.6217   3.6611   3.6919
  3.7358   3.7449   3.7720   3.7909   3.8168   3.8599   3.8833   3.8967
  3.9254   3.9392   3.9782   4.0126   4.0754   4.1345   4.1832   4.2129
  4.2242   4.2419   4.2821   4.3097   4.3789   4.3832   4.4306   4.5101
  4.7614   5.0845   5.1207   5.1271   5.1305   5.1384   5.1751   5.1828
  5.1937   5.2086   5.2254   5.2371   5.2424   5.2623   5.2693   5.2780
  5.2888   5.3205   5.3431   5.3446   5.3562   5.4149   5.4230   5.4534
  5.4971   5.5168   5.5527   5.5906   5.6014   5.6161   5.6368   5.6546
  5.6781   5.6977   5.7225   5.7717   5.8941   5.9475   6.0033   6.1023
  6.1570   6.2079   6.4787   6.5002   6.7129   6.7881   6.9047   6.9679
  7.0032   7.0061   7.0345   7.0584   7.0654   7.0922   7.1305   7.1881
  7.2066   7.2347   7.2504   7.2624   7.2881   7.3069   7.3534   7.3619
  7.3802   7.4416   7.4489   7.5073   7.6042   7.6461   7.6651   7.7320
  7.7624   7.7718   7.8108   7.8886   7.8943  24.7886  25.1314  50.4674
 50.5688  50.5851  50.6191  50.7336
 --------------------------------------------------------------
 
          Ground-State Mulliken Net Atomic Charges

     Atom                 Charge (a.u.)    Spin (a.u.)
  --------------------------------------------------------
      1 O                    -0.360268       0.026785
      2 C                    -0.225040       0.167564
      3 O                    -0.387629       0.033515
      4 C                     0.410791      -0.003297
      5 O                    -0.281706       0.000570
      6 O                    -0.461938       0.009195
      7 H                     0.353903       0.000280
      8 H                     0.315758       0.001919
      9 H                     0.365305       0.000051
     10 H                     0.384230      -0.027501
     11 O                    -0.444216       0.802925
     12 H                     0.330809      -0.012006
  --------------------------------------------------------
  Sum of atomic charges =    -0.000000
  Sum of spin   charges =     1.000000

 -----------------------------------------------------------------
                    Cartesian Multipole Moments
 -----------------------------------------------------------------
    Charge (ESU x 10^10)
                -0.0000
    Dipole Moment (Debye)
         X       2.9247      Y       1.2295      Z      -1.4710
       Tot       3.4970
    Quadrupole Moments (Debye-Ang)
        XX     -29.8899     XY       0.9557     YY     -41.9539
        XZ      -2.1360     YZ      -0.1461     ZZ     -49.2387
    Octopole Moments (Debye-Ang^2)
       XXX     -30.6623    XXY       0.8427    XYY     -38.6439
       YYY     -24.6992    XXZ     -26.1152    XYZ       3.4724
       YYZ     -17.9234    XZZ     -22.3118    YZZ     -24.9161
       ZZZ     -91.0298
    Hexadecapole Moments (Debye-Ang^3)
      XXXX    -277.4309   XXXY      -3.5028   XXYY    -107.0762
      XYYY     -11.2416   YYYY    -328.1359   XXXZ     -37.0203
      XXYZ      -0.1593   XYYZ      -5.0646   YYYZ     -75.9621
      XXZZ    -109.5520   XYZZ      -7.3194   YYZZ    -133.1615
      XZZZ     -48.0037   YZZZ    -101.1619   ZZZZ    -444.2517
 -----------------------------------------------------------------
 Calculating analytic gradient of the SCF energy
 Gradient of CDS energy
            1           2           3           4           5           6
    1   0.0017043  -0.0060790   0.0040406   0.0024192  -0.0021299   0.0000063
    2  -0.0035546   0.0000657   0.0036930  -0.0001646  -0.0016399   0.0012314
    3   0.0033375  -0.0011020  -0.0018142  -0.0014750   0.0011171  -0.0000859
            7           8           9          10          11          12
    1  -0.0002636  -0.0002577   0.0003766   0.0001231  -0.0003167   0.0003766
    2   0.0004179  -0.0003105   0.0000182   0.0000127  -0.0000558   0.0002865
    3  -0.0000880   0.0001415  -0.0002005  -0.0000958   0.0001193   0.0001461
 Gradient of SCF Energy
            1           2           3           4           5           6
    1   0.0070193  -0.0024555  -0.0056462  -0.0012945  -0.0144583  -0.0000741
    2  -0.0071943  -0.0034394   0.0047771   0.0046485   0.0129777  -0.0104350
    3  -0.0089905  -0.0035949   0.0012231   0.0033986   0.0030170   0.0000036
            7           8           9          10          11          12
    1  -0.0064913   0.0019954   0.0171533   0.0044050  -0.0125278   0.0123747
    2   0.0085611  -0.0049593  -0.0083730   0.0035165  -0.0012935   0.0012135
    3   0.0066545  -0.0000051  -0.0068377   0.0018161   0.0130707  -0.0097553
 Max gradient component =       1.715E-02
 RMS gradient           =       7.477E-03
 Computing fast CPCM-SWIG gradient
 Updating gradient with PCM contributions...
 -- total gradient after adding PCM contribution --
---------------------------------------------------
  Atom         X              Y              Z     
---------------------------------------------------
   1      -0.000487       0.000598       0.000253
   2       0.000003      -0.000418       0.000255
   3      -0.000059       0.000030      -0.000084
   4       0.000088       0.000051      -0.000100
   5       0.000140       0.000129      -0.000040
   6      -0.000012      -0.000014       0.000030
   7       0.000312      -0.000381      -0.000280
   8       0.000061      -0.000039       0.000073
   9      -0.000132      -0.000015       0.000022
  10       0.000104       0.000229      -0.000054
  11       0.000226      -0.000096      -0.000129
  12      -0.000244      -0.000075       0.000052
---------------------------------------------------
 Number of fixed atoms: 0
 Gradient time:  CPU 107.51 s  wall 16.18 s
 ----------------------------------------------------------------
             Standard Nuclear Orientation (Angstroms)
    I     Atom           X                Y                Z
 ----------------------------------------------------------------
    1      O      -0.4628443119     1.4072765168    -0.3338263962
    2      C       0.0001780212     0.4576397441     0.5699888494
    3      O      -0.9991184032    -0.4100108625     0.9945623619
    4      C       1.1585387697    -0.3123762542    -0.0500006829
    5      O       2.0694287861     0.4823349227    -0.5845675524
    6      O       1.2217330546    -1.5180777080    -0.0011624366
    7      H      -1.0496509914     2.0161099922     0.1307241003
    8      H      -0.6649513630    -1.3165348992     0.9062656099
    9      H       2.7994759286    -0.0533732966    -0.9357000371
   10      H       0.4330768658     0.9910550084     1.4857371922
   11      O       1.2872704652     1.6529693057     2.5904387587
   12      H       2.0679795783     1.7852775305     2.0246481329
 ----------------------------------------------------------------
 Nuclear Repulsion Energy =         325.37491318 hartrees
 There are       29 alpha and       28 beta electrons
 Discretize the solute cavity surface with Lebedev spheres
	Using 110 Lebedev grid points for each H atom
	Using 194 Lebedev grid points for other atoms
	Atomic van der Waals radii will be scaled by 1.20
 Remove points where switching function is < 1.0e-08
 Keep 1055 surface tesserae and discard 853 interior tesserae
 Molecular Surface Area = 123.848 Angst**2

                       Distance Matrix (Angstroms)
             O (  1)   C (  2)   O (  3)   C (  4)   O (  5)   O (  6)
   C (  2)  1.390353
   O (  3)  2.314031  1.389847
   C (  4)  2.380472  1.522863  2.399193
   O (  5)  2.707544  2.369685  3.564536  1.321760
   O (  6)  3.392074  2.392043  2.674222  1.208344  2.249578
   H (  7)  0.964794  1.929747  2.575817  3.214127  3.548629  4.203220
   H (  8)  2.999637  1.924363  0.970180  2.290829  3.596575  2.103241
   H (  9)  3.624705  3.219364  4.275795  1.882610  0.971209  2.346911
   H ( 10)  2.070441  1.144783  2.062867  2.140962  2.687491  3.021357
   O ( 11)  3.416810  2.677244  3.468470  3.294097  3.473157  4.095880
   H ( 12)  3.479994  2.855601  3.909918  3.087297  2.916448  3.966383
             H (  7)   H (  8)   H (  9)   H ( 10)   O ( 11)
   H (  8)  3.443251
   H (  9)  4.498422  4.121974
   H ( 10)  2.255057  2.620386  3.543167
   O ( 11)  3.412224  3.932628  4.199051  1.545362
   H ( 12)  3.655113  4.282631  3.560812  1.895817  0.973207
 
 Requested basis set is 6-311++G(2df,2p)
 There are 86 shells and 288 basis functions
 A cutoff of  1.0D-12 yielded   3438 shell pairs
 There are     38668 function pairs (     48483 Cartesian)
 Smallest overlap matrix eigenvalue = 4.81E-05
 Guess MOs from SCF MO coefficient file

 -----------------------------------------------------------------------
  General SCF calculation program by
  Eric Jon Sundstrom, Paul Horn, Yuezhi Mao, Dmitri Zuev, Alec White,
  David Stuck, Shaama M.S., Shane Yost, Joonho Lee, David Small,
  Daniel Levine, Susi Lehtola, Hugh Burton, Evgeny Epifanovsky,
  Bang C. Huynh
 -----------------------------------------------------------------------
 Exchange:     0.1500 Hartree-Fock + 1.0000 wB97M-V + LR-HF
 Correlation:  1.0000 wB97M-V
 Using SG-2 standard quadrature grid
 Nonlocal Correlation:  VV10 with C = 0.0100 and b = 6.00 and scale = 1.00000
 Grid used for NLC:  SG-1 standard quadrature
 
 Citation of the SMD model:
 Marenich, A.V.; Cramer, C.J.; Truhlar, D.G.
 J. Phys. Chem. B 2009, 113, 6378-6396.
 iSolventCode=           1
 Solvent: water                                                           
 
 vradii
            1           2           3           4           5           6
    1   1.5200000   1.8500000   1.5200000   1.8500000   1.5200000   1.5200000
            7           8           9          10          11          12
    1   1.2000000   1.2000000   1.2000000   1.2000000   1.5200000   1.2000000
 -------------------------------------------------------
 OpenMP BLAS3 based DFT computing Module                
 Release: version 1.0, May 2013, Q-Chem Inc. Pittsburgh 
 -------------------------------------------------------
 A unrestricted SCF calculation will be
 performed using Roothaan-Hall, DIIS, GDM
 SCF converges when RMS gradient is below 1.0e-07
 ---------------------------------------
  Cycle       Energy         DIIS error
 ---------------------------------------
    1    -455.2800770776      2.79e-04  Roothaan Step
 ---------------------------------------
  Cycle       Energy         DIIS error
 ---------------------------------------
    1    -455.3157478193      3.12e-04  
    2    -455.3194481299      2.66e-04  Done DIIS. Switching to GDM
 ---------------------------------------
  Cycle       Energy        RMS Gradient
 ---------------------------------------
    1    -455.3194481299      1.33e-02   Normal BFGS step
    2    -455.3189422699      2.25e-02  Line search: overstep
    3    -455.3213181323      3.44e-03   Normal BFGS step
    4    -455.3214304349      9.49e-04   Normal BFGS step
    5    -455.3214474259      7.91e-04   Normal BFGS step
    6    -455.3214534401      1.91e-04   Normal BFGS step
    7    -455.3214537200      1.13e-04   Normal BFGS step
    8    -455.3214537997      7.51e-05   Normal BFGS step
    9    -455.3214538180      3.54e-05   Normal BFGS step
   10    -455.3214538222      1.31e-05   Normal BFGS step
   11    -455.3214538233      5.15e-06   Normal BFGS step
   12    -455.3214538234      3.17e-06   Normal BFGS step
   13    -455.3214538235      2.84e-06   Normal BFGS step
   14    -455.3214538235      2.79e-06   Normal BFGS step
   15    -455.3214538235      1.77e-06   Normal BFGS step
   16    -455.3214538235      7.98e-07   Normal BFGS step
   17    -455.3214538236      4.03e-07   Normal BFGS step
   18    -455.3214538235      1.38e-07   Normal BFGS step
   19    -455.3214538235      5.25e-08  Convergence criterion met
 ---------------------------------------
 SCF time:   CPU 807.06s  wall 102.00s 
<S^2> =          0.756496337
(3)  G-ENP(liq) elect-nuc-pol free energy of system     -455.321453824 a.u.
(4)  G-CDS(liq) cavity-dispersion-solvent structure 
     free energy                                                4.7130 kcal/mol
(6)  G-S(liq) free energy of system                     -455.313943213 a.u.
 SCF   energy in the final basis set =     -455.3139432134
 Total energy in the final basis set =     -455.3139432134
 
 --------------------------------------------------------------
 
                    Orbital Energies (a.u.)
 --------------------------------------------------------------
 
 Alpha MOs
 -- Occupied --
-19.3981 -19.3857 -19.3651 -19.3611 -19.3520 -10.5041 -10.4796  -1.2696
 -1.2202  -1.1813  -1.1533  -1.1341  -0.8655  -0.7495  -0.6878  -0.6714
 -0.6457  -0.6157  -0.5867  -0.5675  -0.5470  -0.5309  -0.5084  -0.4891
 -0.4558  -0.4527  -0.4397  -0.4234  -0.3854
 -- Virtual --
  0.0248   0.0421   0.0504   0.0576   0.0713   0.0825   0.0939   0.1027
  0.1119   0.1233   0.1414   0.1515   0.1562   0.1749   0.2081   0.2109
  0.2209   0.2265   0.2440   0.2555   0.2617   0.2673   0.2800   0.2931
  0.3061   0.3110   0.3212   0.3255   0.3297   0.3322   0.3380   0.3444
  0.3478   0.3557   0.3732   0.3836   0.3927   0.4054   0.4188   0.4241
  0.4481   0.4604   0.4862   0.5496   0.5651   0.5908   0.6097   0.6195
  0.6296   0.6394   0.6593   0.6726   0.7032   0.7104   0.7412   0.7757
  0.8052   0.8310   0.8459   0.8603   0.8924   0.8942   0.9213   0.9450
  0.9644   0.9915   1.0094   1.0419   1.0628   1.0930   1.1104   1.1192
  1.1291   1.1337   1.1504   1.1511   1.1755   1.1803   1.2010   1.2047
  1.2364   1.2505   1.2751   1.2976   1.3355   1.3572   1.3903   1.4006
  1.4103   1.4370   1.4715   1.4900   1.5236   1.5379   1.5788   1.5982
  1.6062   1.6293   1.6530   1.6712   1.7196   1.7295   1.7742   1.8089
  1.8362   1.8529   1.8804   1.8864   1.9429   1.9848   2.0248   2.0802
  2.1539   2.1649   2.2519   2.2688   2.2986   2.3428   2.3673   2.3799
  2.4155   2.4432   2.4518   2.4918   2.5452   2.5609   2.7048   2.7295
  2.7500   2.7870   2.8106   2.8668   2.8917   2.9106   3.0253   3.1199
  3.1657   3.2044   3.2244   3.2786   3.3527   3.3655   3.3934   3.4036
  3.4805   3.4947   3.5331   3.5745   3.6201   3.6580   3.6869   3.7270
  3.7385   3.7670   3.7889   3.8136   3.8579   3.8795   3.8893   3.9204
  3.9295   3.9724   4.0111   4.0734   4.1316   4.1812   4.2123   4.2161
  4.2408   4.2806   4.3099   4.3806   4.3841   4.4391   4.5145   4.7585
  5.0686   5.0780   5.0850   5.1257   5.1337   5.1429   5.1736   5.1852
  5.1909   5.2063   5.2281   5.2372   5.2458   5.2527   5.2687   5.2801
  5.2980   5.3126   5.3341   5.3484   5.3574   5.4193   5.4375   5.4957
  5.5143   5.5507   5.5873   5.5991   5.6147   5.6195   5.6468   5.6582
  5.6762   5.7198   5.7661   5.8921   5.9470   6.0014   6.1006   6.1555
  6.2062   6.4776   6.4944   6.7100   6.7862   6.8746   6.9037   6.9750
  7.0012   7.0076   7.0343   7.0598   7.0761   7.0946   7.1454   7.2036
  7.2316   7.2470   7.2612   7.2832   7.2917   7.3104   7.3516   7.3712
  7.4407   7.4446   7.5036   7.5335   7.6385   7.6626   7.7300   7.7592
  7.7711   7.8090   7.8872   7.8926  24.7849  25.1311  50.4528  50.5680
 50.5847  50.6182  50.7334
 
 Beta MOs
 -- Occupied --
-19.3981 -19.3647 -19.3642 -19.3600 -19.3517 -10.5040 -10.4758  -1.2691
 -1.2177  -1.1807  -1.1512  -1.0791  -0.8607  -0.7454  -0.6832  -0.6654
 -0.6397  -0.6099  -0.5738  -0.5525  -0.5459  -0.5235  -0.4875  -0.4531
 -0.4376  -0.4304  -0.4265  -0.4046
 -- Virtual --
 -0.0814   0.0257   0.0424   0.0506   0.0587   0.0749   0.0835   0.0939
  0.1030   0.1122   0.1243   0.1432   0.1516   0.1576   0.1764   0.2114
  0.2129   0.2232   0.2286   0.2453   0.2559   0.2636   0.2701   0.2806
  0.2940   0.3078   0.3122   0.3221   0.3273   0.3309   0.3334   0.3406
  0.3451   0.3482   0.3571   0.3766   0.3896   0.3948   0.4111   0.4195
  0.4321   0.4493   0.4663   0.4870   0.5510   0.5696   0.5922   0.6130
  0.6214   0.6315   0.6425   0.6611   0.6737   0.7080   0.7119   0.7421
  0.7767   0.8065   0.8320   0.8481   0.8608   0.8951   0.8955   0.9232
  0.9501   0.9658   0.9932   1.0143   1.0440   1.0682   1.0954   1.1123
  1.1201   1.1314   1.1347   1.1517   1.1542   1.1789   1.1964   1.2040
  1.2235   1.2379   1.2514   1.2807   1.3009   1.3395   1.3587   1.3928
  1.4029   1.4151   1.4406   1.4767   1.4914   1.5256   1.5414   1.5882
  1.6088   1.6152   1.6448   1.6559   1.6771   1.7233   1.7381   1.7894
  1.8143   1.8427   1.8561   1.8853   1.8963   1.9450   1.9862   2.0476
  2.0822   2.1561   2.1663   2.2541   2.2737   2.3008   2.3477   2.3715
  2.3834   2.4169   2.4492   2.4611   2.4961   2.5484   2.5621   2.7069
  2.7331   2.7609   2.7923   2.8140   2.8676   2.8930   2.9145   3.0250
  3.1233   3.1680   3.2054   3.2265   3.2804   3.3556   3.3679   3.3946
  3.4067   3.4829   3.4984   3.5341   3.5829   3.6217   3.6611   3.6919
  3.7358   3.7449   3.7721   3.7909   3.8167   3.8599   3.8831   3.8966
  3.9252   3.9391   3.9781   4.0126   4.0754   4.1345   4.1832   4.2129
  4.2242   4.2419   4.2818   4.3098   4.3788   4.3831   4.4307   4.5101
  4.7613   5.0844   5.1207   5.1271   5.1305   5.1384   5.1751   5.1828
  5.1938   5.2086   5.2254   5.2370   5.2424   5.2623   5.2692   5.2780
  5.2888   5.3204   5.3430   5.3446   5.3562   5.4149   5.4230   5.4533
  5.4971   5.5168   5.5526   5.5904   5.6014   5.6161   5.6368   5.6545
  5.6780   5.6977   5.7226   5.7715   5.8931   5.9474   6.0029   6.1024
  6.1566   6.2081   6.4787   6.5000   6.7124   6.7878   6.9047   6.9679
  7.0032   7.0061   7.0345   7.0583   7.0653   7.0920   7.1305   7.1881
  7.2066   7.2347   7.2504   7.2624   7.2879   7.3070   7.3534   7.3619
  7.3801   7.4416   7.4488   7.5069   7.6042   7.6459   7.6650   7.7319
  7.7622   7.7717   7.8108   7.8886   7.8943  24.7880  25.1314  50.4674
 50.5686  50.5850  50.6190  50.7336
 --------------------------------------------------------------
 
          Ground-State Mulliken Net Atomic Charges

     Atom                 Charge (a.u.)    Spin (a.u.)
  --------------------------------------------------------
      1 O                    -0.360340       0.026826
      2 C                    -0.225066       0.167607
      3 O                    -0.387449       0.033536
      4 C                     0.410781      -0.003309
      5 O                    -0.281701       0.000569
      6 O                    -0.461948       0.009200
      7 H                     0.353879       0.000272
      8 H                     0.315799       0.001920
      9 H                     0.365306       0.000052
     10 H                     0.384228      -0.027498
     11 O                    -0.444292       0.802831
     12 H                     0.330803      -0.012005
  --------------------------------------------------------
  Sum of atomic charges =    -0.000000
  Sum of spin   charges =     1.000000

 -----------------------------------------------------------------
                    Cartesian Multipole Moments
 -----------------------------------------------------------------
    Charge (ESU x 10^10)
                -0.0000
    Dipole Moment (Debye)
         X       2.9207      Y       1.2250      Z      -1.4716
       Tot       3.4924
    Quadrupole Moments (Debye-Ang)
        XX     -29.8873     XY       0.9530     YY     -41.9635
        XZ      -2.1381     YZ      -0.1485     ZZ     -49.2410
    Octopole Moments (Debye-Ang^2)
       XXX     -30.6863    XXY       0.8366    XYY     -38.6536
       YYY     -24.7425    XXZ     -26.1180    XYZ       3.4709
       YYZ     -17.9243    XZZ     -22.3246    YZZ     -24.9294
       ZZZ     -91.0377
    Hexadecapole Moments (Debye-Ang^3)
      XXXX    -277.3966   XXXY      -3.5243   XXYY    -107.0879
      XYYY     -11.2596   YYYY    -328.2829   XXXZ     -37.0233
      XXYZ      -0.1635   XYYZ      -5.0682   YYYZ     -75.9627
      XXZZ    -109.5541   XYZZ      -7.3312   YYZZ    -133.1863
      XZZZ     -48.0189   YZZZ    -101.1755   ZZZZ    -444.2820
 -----------------------------------------------------------------
 Calculating analytic gradient of the SCF energy
 Gradient of CDS energy
            1           2           3           4           5           6
    1   0.0016944  -0.0060691   0.0040412   0.0024187  -0.0021297   0.0000063
    2  -0.0035431   0.0000525   0.0036935  -0.0001649  -0.0016393   0.0012314
    3   0.0033241  -0.0010877  -0.0018143  -0.0014749   0.0011168  -0.0000859
            7           8           9          10          11          12
    1  -0.0002640  -0.0002577   0.0003766   0.0001232  -0.0003167   0.0003766
    2   0.0004181  -0.0003105   0.0000182   0.0000134  -0.0000558   0.0002865
    3  -0.0000884   0.0001415  -0.0002005  -0.0000961   0.0001193   0.0001461
 Gradient of SCF Energy
            1           2           3           4           5           6
    1   0.0070783  -0.0025282  -0.0056245  -0.0012929  -0.0144608  -0.0000667
    2  -0.0068921  -0.0035720   0.0046570   0.0046413   0.0129833  -0.0104368
    3  -0.0091534  -0.0035001   0.0013160   0.0033911   0.0030182   0.0000017
            7           8           9          10          11          12
    1  -0.0064844   0.0019862   0.0171521   0.0043857  -0.0125163   0.0123715
    2   0.0085062  -0.0049711  -0.0083730   0.0035314  -0.0012865   0.0012123
    3   0.0066545   0.0000132  -0.0068384   0.0017751   0.0130714  -0.0097493
 Max gradient component =       1.715E-02
 RMS gradient           =       7.473E-03
 Computing fast CPCM-SWIG gradient
 Updating gradient with PCM contributions...
 -- total gradient after adding PCM contribution --
---------------------------------------------------
  Atom         X              Y              Z     
---------------------------------------------------
   1      -0.000447       0.000876       0.000090
   2      -0.000071      -0.000557       0.000344
   3      -0.000040      -0.000098       0.000005
   4       0.000092       0.000046      -0.000104
   5       0.000138       0.000133      -0.000041
   6      -0.000008      -0.000014       0.000028
   7       0.000334      -0.000415      -0.000278
   8       0.000053      -0.000040       0.000092
   9      -0.000131      -0.000014       0.000021
  10       0.000091       0.000249      -0.000089
  11       0.000230      -0.000092      -0.000121
  12      -0.000241      -0.000074       0.000052
---------------------------------------------------
 Number of fixed atoms: 0
 Gradient time:  CPU 105.02 s  wall 15.75 s
 ----------------------------------------------------------------
             Standard Nuclear Orientation (Angstroms)
    I     Atom           X                Y                Z
 ----------------------------------------------------------------
    1      O      -0.4628443119     1.4052765168    -0.3338263962
    2      C       0.0001780212     0.4576397441     0.5699888494
    3      O      -0.9991184032    -0.4100108625     0.9945623619
    4      C       1.1585387697    -0.3123762542    -0.0500006829
    5      O       2.0694287861     0.4823349227    -0.5845675524
    6      O       1.2217330546    -1.5180777080    -0.0011624366
    7      H      -1.0496509914     2.0161099922     0.1307241003
    8      H      -0.6649513630    -1.3165348992     0.9062656099
    9      H       2.7994759286    -0.0533732966    -0.9357000371
   10      H       0.4330768658     0.9910550084     1.4857371922
   11      O       1.2872704652     1.6529693057     2.5904387587
   12      H       2.0679795783     1.7852775305     2.0246481329
 ----------------------------------------------------------------
 Nuclear Repulsion Energy =         325.41279816 hartrees
 There are       29 alpha and       28 beta electrons
 Discretize the solute cavity surface with Lebedev spheres
	Using 110 Lebedev grid points for each H atom
	Using 194 Lebedev grid points for other atoms
	Atomic van der Waals radii will be scaled by 1.20
 Remove points where switching function is < 1.0e-08
 Keep 1055 surface tesserae and discard 853 interior tesserae
 Molecular Surface Area = 123.841 Angst**2

                       Distance Matrix (Angstroms)
             O (  1)   C (  2)   O (  3)   C (  4)   O (  5)   O (  6)
   C (  2)  1.388988
   O (  3)  2.312461  1.389847
   C (  4)  2.379027  1.522863  2.399193
   O (  5)  2.706862  2.369685  3.564536  1.321760
   O (  6)  3.390349  2.392043  2.674222  1.208344  2.249578
   H (  7)  0.966057  1.929747  2.575817  3.214127  3.548629  4.203220
   H (  8)  2.997821  1.924363  0.970180  2.290829  3.596575  2.103241
   H (  9)  3.623899  3.219364  4.275795  1.882610  0.971209  2.346911
   H ( 10)  2.070040  1.144783  2.062867  2.140962  2.687491  3.021357
   O ( 11)  3.416955  2.677244  3.468470  3.294097  3.473157  4.095880
   H ( 12)  3.480212  2.855601  3.909918  3.087297  2.916448  3.966383
             H (  7)   H (  8)   H (  9)   H ( 10)   O ( 11)
   H (  8)  3.443251
   H (  9)  4.498422  4.121974
   H ( 10)  2.255057  2.620386  3.543167
   O ( 11)  3.412224  3.932628  4.199051  1.545362
   H ( 12)  3.655113  4.282631  3.560812  1.895817  0.973207
 
 Requested basis set is 6-311++G(2df,2p)
 There are 86 shells and 288 basis functions
 A cutoff of  1.0D-12 yielded   3438 shell pairs
 There are     38668 function pairs (     48483 Cartesian)
 Smallest overlap matrix eigenvalue = 4.81E-05
 Guess MOs from SCF MO coefficient file

 -----------------------------------------------------------------------
  General SCF calculation program by
  Eric Jon Sundstrom, Paul Horn, Yuezhi Mao, Dmitri Zuev, Alec White,
  David Stuck, Shaama M.S., Shane Yost, Joonho Lee, David Small,
  Daniel Levine, Susi Lehtola, Hugh Burton, Evgeny Epifanovsky,
  Bang C. Huynh
 -----------------------------------------------------------------------
 Exchange:     0.1500 Hartree-Fock + 1.0000 wB97M-V + LR-HF
 Correlation:  1.0000 wB97M-V
 Using SG-2 standard quadrature grid
 Nonlocal Correlation:  VV10 with C = 0.0100 and b = 6.00 and scale = 1.00000
 Grid used for NLC:  SG-1 standard quadrature
 
 Citation of the SMD model:
 Marenich, A.V.; Cramer, C.J.; Truhlar, D.G.
 J. Phys. Chem. B 2009, 113, 6378-6396.
 iSolventCode=           1
 Solvent: water                                                           
 
 vradii
            1           2           3           4           5           6
    1   1.5200000   1.8500000   1.5200000   1.8500000   1.5200000   1.5200000
            7           8           9          10          11          12
    1   1.2000000   1.2000000   1.2000000   1.2000000   1.5200000   1.2000000
 -------------------------------------------------------
 OpenMP BLAS3 based DFT computing Module                
 Release: version 1.0, May 2013, Q-Chem Inc. Pittsburgh 
 -------------------------------------------------------
 A unrestricted SCF calculation will be
 performed using Roothaan-Hall, DIIS, GDM
 SCF converges when RMS gradient is below 1.0e-07
 ---------------------------------------
  Cycle       Energy         DIIS error
 ---------------------------------------
    1    -455.2800785421      2.79e-04  Roothaan Step
 ---------------------------------------
[...]
   1      -0.000105      -0.000334      -0.000097
   2      -0.000478       0.000601       0.000659
   3       0.000767       0.000299       0.001294
   4       0.000486      -0.000467       0.000448
   5       0.000257       0.000554       0.001550
   6      -0.000563       0.000254      -0.000518
   7       0.000878       0.000936       0.000785
   8       0.000896      -0.000147       0.000263
   9      -0.000166       0.000003      -0.000156
  10      -0.001413      -0.001869      -0.004442
  11      -0.002048       0.000048       0.001547
  12       0.001489       0.000120      -0.001334
---------------------------------------------------
 Number of fixed atoms: 0
 Gradient time:  CPU 93.37 s  wall 14.00 s
rPathMan2.  file_steps = 952
 IRC --- Status = 3.  Assess initial corrector step
 IRC --- bisector search: b =  0.000000 E =     -455.378634 G.B =  -0.004887
 IRC --- bisector search: b =  0.010853 E =     -455.378632 G.B =   0.005204
 IRC --- performed gradient/energy interpolation
 IRC --- bisector search:  estimate b(min) =   5.229645331825268E-003
 ----------------------------------------------------------------
             Standard Nuclear Orientation (Angstroms)
    I     Atom           X                Y                Z
 ----------------------------------------------------------------
    1      O      -0.3818244644     1.5212557370    -0.2555389903
    2      C      -0.1275662359     0.2703204346     0.1154905642
    3      O      -1.0797587212    -0.3797037079     0.7832100420
    4      C       1.1145917989    -0.3518747798    -0.1613820574
    5      O       2.0341223199     0.4645019177    -0.7229440539
    6      O       1.3286308347    -1.5391903236     0.1137266087
    7      H      -1.1585430335     1.8661430887     0.2106286770
    8      H      -0.7316986092    -1.2534470243     1.0300417570
    9      H       2.8285884158    -0.0611829396    -0.8963405181
   10      H       0.6853003046     1.1915673799     1.9707761080
   11      O       1.2785780430     1.6548064742     2.5689276870
   12      H       2.0706775452     1.7980789867     2.0405262429
 ----------------------------------------------------------------
 Nuclear Repulsion Energy =         323.89002851 hartrees
 There are       29 alpha and       28 beta electrons
 Discretize the solute cavity surface with Lebedev spheres
	Using 110 Lebedev grid points for each H atom
	Using 194 Lebedev grid points for other atoms
	Atomic van der Waals radii will be scaled by 1.20
 Remove points where switching function is < 1.0e-08
 Keep 1074 surface tesserae and discard 834 interior tesserae
 Molecular Surface Area = 126.853 Angst**2

                       Distance Matrix (Angstroms)
             O (  1)   C (  2)   O (  3)   C (  4)   O (  5)   O (  6)
   C (  2)  1.329342
   O (  3)  2.275908  1.332310
   C (  4)  2.399322  1.416595  2.389185
   O (  5)  2.678058  2.326709  3.560539  1.351798
   O (  6)  3.525386  2.322680  2.755532  1.237423  2.283094
   H (  7)  0.969305  1.902266  2.319027  3.197677  3.609608  4.218023
   H (  8)  3.078003  1.877031  0.972368  2.375102  3.697847  2.272936
   H (  9)  3.636137  3.142061  4.265855  1.887445  0.968291  2.335512
   H ( 10)  2.490769  2.225204  2.644738  2.666946  3.099044  3.364453
   O ( 11)  3.279083  3.148555  3.590233  3.392382  3.581074  4.028912
   H ( 12)  3.370951  3.297284  4.030984  3.222546  3.068637  3.924354
             H (  7)   H (  8)   H (  9)   H ( 10)   O ( 11)
   H (  8)  3.253533
   H (  9)  4.564776  4.219963
   H ( 10)  2.636841  2.978416  3.792549
   O ( 11)  3.397911  3.855816  4.165962  0.961433
   H ( 12)  3.712280  4.264528  3.557593  1.513932  0.962890
 
 Applying Cartesian multipole field
    Component          Value
    ---------          -----
     (2,0,0)        1.00000E-11
     (0,2,0)        2.00000E-11
     (0,0,2)       -3.00000E-11
 Nucleus-field energy     =     0.0000000008 hartrees
 Requested basis set is 6-311++G(2df,2p)
 There are 86 shells and 288 basis functions
 A cutoff of  1.0D-12 yielded   3418 shell pairs
 There are     38400 function pairs (     48137 Cartesian)
 Smallest overlap matrix eigenvalue = 2.61E-05
 Guess MOs from SCF MO coefficient file

 -----------------------------------------------------------------------
  General SCF calculation program by
  Eric Jon Sundstrom, Paul Horn, Yuezhi Mao, Dmitri Zuev, Alec White,
  David Stuck, Shaama M.S., Shane Yost, Joonho Lee, David Small,
  Daniel Levine, Susi Lehtola, Hugh Burton, Evgeny Epifanovsky,
  Bang C. Huynh
 -----------------------------------------------------------------------
 Exchange:     0.1500 Hartree-Fock + 1.0000 wB97M-V + LR-HF
 Correlation:  1.0000 wB97M-V
 Using SG-2 standard quadrature grid
 Nonlocal Correlation:  VV10 with C = 0.0100 and b = 6.00 and scale = 1.00000
 Grid used for NLC:  SG-1 standard quadrature
 
 Citation of the SMD model:
 Marenich, A.V.; Cramer, C.J.; Truhlar, D.G.
 J. Phys. Chem. B 2009, 113, 6378-6396.
 iSolventCode=           1
 Solvent: water                                                           
 
 vradii
            1           2           3           4           5           6
    1   1.5200000   1.8500000   1.5200000   1.8500000   1.5200000   1.5200000
            7           8           9          10          11          12
    1   1.2000000   1.2000000   1.2000000   1.2000000   1.5200000   1.2000000
 -------------------------------------------------------
 OpenMP BLAS3 based DFT computing Module                
 Release: version 1.0, May 2013, Q-Chem Inc. Pittsburgh 
 -------------------------------------------------------
 A unrestricted SCF calculation will be
 performed using Roothaan-Hall, DIIS, GDM
 SCF converges when RMS gradient is below 1.0e-07
 ---------------------------------------
  Cycle       Energy         DIIS error
 ---------------------------------------
    1    -455.3397618590      2.97e-04  Roothaan Step
 ---------------------------------------
  Cycle       Energy         DIIS error
 ---------------------------------------
    1    -455.3806024904      3.48e-04  
    2    -455.3844386318      3.31e-04  Done DIIS. Switching to GDM
 ---------------------------------------
  Cycle       Energy        RMS Gradient
 ---------------------------------------
    1    -455.3844386318      1.56e-02   Normal BFGS step
    2    -455.3834606804      2.73e-02  Line search: overstep
    3    -455.3872851811      4.37e-03   Normal BFGS step
    4    -455.3874203479      2.06e-03   Normal BFGS step
    5    -455.3874444688      1.21e-03   Normal BFGS step
    6    -455.3874538555      3.83e-04   Normal BFGS step
    7    -455.3874548865      3.21e-04   Normal BFGS step
    8    -455.3874552276      5.20e-05   Normal BFGS step
    9    -455.3874552644      3.45e-05   Normal BFGS step
   10    -455.3874552759      1.13e-05   Normal BFGS step
   11    -455.3874552766      8.77e-06   Normal BFGS step
   12    -455.3874552769      3.89e-06   Normal BFGS step
   13    -455.3874552770      1.19e-06   Normal BFGS step
   14    -455.3874552770      5.47e-07   Normal BFGS step
   15    -455.3874552770      2.02e-07   Normal BFGS step
   16    -455.3874552770      5.67e-08  Convergence criterion met
 ---------------------------------------
 SCF time:   CPU 647.38s  wall 81.00s 
<S^2> =          0.753637652
(3)  G-ENP(liq) elect-nuc-pol free energy of system     -455.387455277 a.u.
(4)  G-CDS(liq) cavity-dispersion-solvent structure 
     free energy                                                5.5272 kcal/mol
(6)  G-S(liq) free energy of system                     -455.378647055 a.u.
 SCF   energy in the final basis set =     -455.3786470549
 Total energy in the final basis set =     -455.3786470549
 
 --------------------------------------------------------------
 
                    Orbital Energies (a.u.)
 --------------------------------------------------------------
 
 Alpha MOs
 -- Occupied --
-19.3978 -19.3974 -19.3796 -19.3349 -19.3282 -10.4863 -10.4824  -1.2737
 -1.2324  -1.2003  -1.1476  -1.1419  -0.8787  -0.7537  -0.7017  -0.6809
 -0.6442  -0.6146  -0.6073  -0.5495  -0.5461  -0.5351  -0.5149  -0.5101
 -0.4878  -0.4466  -0.4326  -0.4108  -0.2792
 -- Virtual --
  0.0240   0.0417   0.0500   0.0589   0.0836   0.0936   0.0964   0.1066
  0.1197   0.1346   0.1389   0.1512   0.1588   0.1638   0.2042   0.2068
  0.2213   0.2375   0.2471   0.2544   0.2570   0.2652   0.2910   0.2949
  0.2987   0.3040   0.3136   0.3166   0.3200   0.3230   0.3367   0.3436
  0.3518   0.3662   0.3867   0.3888   0.4028   0.4072   0.4187   0.4350
  0.4454   0.4731   0.5222   0.5772   0.5939   0.6046   0.6290   0.6384
  0.6600   0.6705   0.6894   0.7047   0.7143   0.7450   0.7555   0.7632
  0.8026   0.8070   0.8172   0.8490   0.8662   0.8799   0.9039   0.9145
  0.9173   0.9453   1.0065   1.0216   1.0352   1.0489   1.0655   1.0854
  1.0971   1.1266   1.1303   1.1379   1.1572   1.1761   1.1802   1.1951
  1.2117   1.2185   1.2405   1.2957   1.3086   1.3121   1.3421   1.4031
  1.4232   1.4307   1.4529   1.4897   1.5233   1.5445   1.5577   1.6248
  1.6337   1.6636   1.6782   1.7040   1.7691   1.8076   1.8235   1.8396
  1.8636   1.8856   1.8953   1.9553   1.9938   2.0092   2.0987   2.1263
  2.1494   2.1812   2.2596   2.3038   2.3170   2.3491   2.3751   2.3960
  2.4127   2.4536   2.4770   2.5453   2.5905   2.6332   2.6758   2.7107
  2.7290   2.7711   2.8210   2.8565   2.8935   2.9374   2.9959   3.0434
  3.1436   3.1472   3.1765   3.2771   3.2860   3.3005   3.3270   3.3546
  3.4000   3.4291   3.4571   3.5383   3.5627   3.5814   3.6191   3.6640
  3.7027   3.7159   3.7490   3.7625   3.7804   3.8011   3.8564   3.8651
  3.8985   3.9373   3.9888   4.0339   4.0964   4.1078   4.1500   4.2350
  4.2483   4.2747   4.2950   4.3110   4.3474   4.4109   4.5064   4.5368
  4.9093   5.1039   5.1159   5.1407   5.1498   5.1549   5.1690   5.1744
  5.1863   5.2244   5.2407   5.2559   5.2600   5.2646   5.2870   5.3252
  5.3419   5.3574   5.4008   5.4312   5.4995   5.5178   5.5521   5.5699
  5.5871   5.5953   5.6123   5.6213   5.6695   5.6888   5.7294   5.7865
  5.8352   5.8573   5.8951   5.9495   5.9745   6.0278   6.1312   6.3812
  6.4796   6.6145   6.8390   6.9148   6.9279   6.9802   7.0066   7.0177
  7.0308   7.0549   7.0643   7.1226   7.1715   7.2013   7.2289   7.2422
  7.2750   7.2821   7.3059   7.3233   7.3610   7.3689   7.4055   7.4292
  7.4466   7.4799   7.5146   7.6246   7.6712   7.6770   7.7392   7.7753
  7.8231   7.8706   7.8883   7.9657  24.9037  25.2495  50.5045  50.5445
 50.6239  50.6485  50.7376
 
 Beta MOs
 -- Occupied --
-19.3945 -19.3942 -19.3784 -19.3347 -19.3232 -10.4810 -10.4783  -1.2656
 -1.2280  -1.1931  -1.1414  -1.1402  -0.8614  -0.7476  -0.6960  -0.6753
 -0.6393  -0.6049  -0.5895  -0.5419  -0.5371  -0.5235  -0.5097  -0.5075
 -0.4620  -0.4318  -0.4228  -0.4043
 -- Virtual --
 -0.0050   0.0241   0.0417   0.0499   0.0590   0.0837   0.0934   0.0965
  0.1065   0.1209   0.1354   0.1516   0.1591   0.1646   0.1818   0.2063
  0.2081   0.2233   0.2387   0.2489   0.2555   0.2582   0.2655   0.2921
  0.2972   0.3001   0.3049   0.3156   0.3207   0.3217   0.3276   0.3386
  0.3445   0.3534   0.3690   0.3876   0.3917   0.4066   0.4090   0.4233
  0.4371   0.4526   0.4761   0.5266   0.5796   0.5960   0.6061   0.6322
  0.6409   0.6642   0.6788   0.6979   0.7070   0.7225   0.7508   0.7586
  0.7696   0.8066   0.8087   0.8191   0.8527   0.8684   0.8823   0.9080
  0.9192   0.9237   0.9512   1.0072   1.0237   1.0379   1.0509   1.0675
  1.0917   1.1003   1.1296   1.1326   1.1413   1.1598   1.1799   1.1864
  1.1974   1.2170   1.2241   1.2432   1.2991   1.3124   1.3182   1.3456
  1.4078   1.4252   1.4366   1.4569   1.4924   1.5241   1.5478   1.5633
  1.6298   1.6385   1.6705   1.6841   1.7079   1.7757   1.8157   1.8288
  1.8458   1.8700   1.8860   1.9014   1.9587   1.9986   2.0158   2.1051
  2.1337   2.1535   2.1875   2.2656   2.3066   2.3198   2.3527   2.3776
  2.4006   2.4217   2.4585   2.4853   2.5515   2.5954   2.6375   2.6808
  2.7216   2.7535   2.7809   2.8400   2.8753   2.9119   2.9694   3.0077
  3.0603   3.1571   3.1654   3.1974   3.2924   3.2991   3.3170   3.3507
  3.3748   3.4221   3.4478   3.4747   3.5624   3.5781   3.6036   3.6326
  3.6833   3.7103   3.7229   3.7539   3.7660   3.8042   3.8094   3.8600
  3.8744   3.9047   3.9426   3.9939   4.0354   4.1004   4.1117   4.1565
  4.2377   4.2544   4.2781   4.3025   4.3499   4.3605   4.4164   4.5129
  4.5454   4.9386   5.1045   5.1232   5.1493   5.1559   5.1631   5.1842
  5.1877   5.1991   5.2333   5.2546   5.2617   5.2694   5.2749   5.2950
  5.3322   5.3501   5.3592   5.4081   5.4348   5.5082   5.5251   5.5536
  5.5790   5.5874   5.6025   5.6163   5.6281   5.6782   5.6946   5.7298
  5.7948   5.8364   5.8640   5.9034   5.9585   5.9879   6.0311   6.1425
  6.3955   6.4853   6.6224   6.8443   6.9335   6.9367   6.9940   7.0077
  7.0351   7.0431   7.0615   7.0726   7.1282   7.1738   7.2044   7.2368
  7.2508   7.2842   7.2906   7.3179   7.3302   7.3701   7.3779   7.4202
  7.4363   7.4476   7.4883   7.5160   7.6313   7.6744   7.6804   7.7455
  7.7823   7.8305   7.8742   7.8915   7.9707  24.9076  25.2544  50.5046
 50.5466  50.6261  50.6511  50.7413
 --------------------------------------------------------------
 
          Ground-State Mulliken Net Atomic Charges

     Atom                 Charge (a.u.)    Spin (a.u.)
  --------------------------------------------------------
      1 O                    -0.332401       0.089800
      2 C                    -0.042757       0.485852
      3 O                    -0.292785       0.096095
      4 C                     0.401643       0.113046
      5 O                    -0.337048       0.035700
      6 O                    -0.550983       0.175073
      7 H                     0.380106       0.001456
      8 H                     0.345333      -0.003002
      9 H                     0.354457      -0.000448
     10 H                     0.426623      -0.001233
     11 O                    -0.676957       0.008006
     12 H                     0.324769      -0.000345
  --------------------------------------------------------
  Sum of atomic charges =     0.000000
  Sum of spin   charges =     1.000000

 -----------------------------------------------------------------
                    Cartesian Multipole Moments
 -----------------------------------------------------------------
    Charge (ESU x 10^10)
                 0.0000
    Dipole Moment (Debye)
         X      -1.3494      Y       1.0049      Z      -1.5881
       Tot       2.3136
    Quadrupole Moments (Debye-Ang)
        XX     -32.6064     XY       0.3944     YY     -46.2673
        XZ      -5.2745     YZ      -3.2638     ZZ     -51.6009
    Octopole Moments (Debye-Ang^2)
       XXX     -42.4860    XXY       2.4678    XYY     -45.7563
       YYY     -26.8824    XXZ     -24.0491    XYZ       1.0106
       YYZ     -20.9149    XZZ     -35.8969    YZZ     -34.7429
       ZZZ     -90.0647
    Hexadecapole Moments (Debye-Ang^3)
      XXXX    -296.9034   XXXY      -0.6301   XXYY    -119.0498
      XYYY      -7.6769   YYYY    -364.6689   XXXZ     -40.2696
      XXYZ      -5.5389   XYYZ     -17.2874   YYYZ     -87.0875
      XXZZ    -125.4339   XYZZ     -20.5023   YYZZ    -152.2199
      XZZZ     -74.6502   YZZZ    -134.0732   ZZZZ    -480.6252
 -----------------------------------------------------------------
 Calculating analytic gradient of the SCF energy
 Gradient of CDS energy
            1           2           3           4           5           6
    1   0.0008086  -0.0038840   0.0026165   0.0035169  -0.0029264  -0.0002310
    2  -0.0030340   0.0013167   0.0019086   0.0001816  -0.0024249   0.0016454
    3   0.0009619   0.0006564  -0.0018204  -0.0015696   0.0016881  -0.0004113
            7           8           9          10          11          12
    1  -0.0003021  -0.0001791   0.0004146  -0.0001599  -0.0000552   0.0003809
    2   0.0003100  -0.0002582   0.0000443  -0.0000361   0.0000628   0.0002838
    3  -0.0000129   0.0001924  -0.0001702   0.0002229   0.0001581   0.0001045
 Gradient of SCF Energy
            1           2           3           4           5           6
    1   0.0180339  -0.0008003  -0.0059651   0.0010503  -0.0115414   0.0028504
    2  -0.0045586   0.0029442   0.0066630   0.0005114   0.0103213  -0.0089450
    3  -0.0122525  -0.0039448   0.0006721   0.0029707   0.0015055  -0.0001564
            7           8           9          10          11          12
    1  -0.0155995   0.0016295   0.0123247  -0.0064453  -0.0024694   0.0069323
    2   0.0090563  -0.0099343  -0.0050151  -0.0054737   0.0044701  -0.0000395
    3   0.0105284   0.0056294  -0.0028828  -0.0115647   0.0173075  -0.0078123
 Max gradient component =       1.803E-02
 RMS gradient           =       8.056E-03
 Computing fast CPCM-SWIG gradient
 Updating gradient with PCM contributions...
 -- total gradient after adding PCM contribution --
---------------------------------------------------
  Atom         X              Y              Z     
---------------------------------------------------
   1      -0.000167      -0.000094      -0.000186
   2       0.000046       0.000203       0.000623
   3       0.000618       0.000185       0.001387
   4       0.000047       0.000097       0.000443
   5       0.000375       0.000434       0.001534
   6      -0.000459      -0.000102      -0.000451
   7       0.000841       0.000972       0.000798
   8       0.000886      -0.000070       0.000235
   9      -0.000220       0.000079      -0.000152
  10       0.000110      -0.000631      -0.002745
  11      -0.001399      -0.000850      -0.001731
  12      -0.000677      -0.000225       0.000247
---------------------------------------------------
 Number of fixed atoms: 0
 Gradient time:  CPU 90.67 s  wall 13.82 s
rPathMan2.  file_steps = 952
 IRC --- Status = 4.  Checking bisector search.
 IRC --- Bisector search finished successfully.
 ------------------------------------------------------------------------
 Reaction path following.  The coordinates are cartesian              
 Step  20 E=    -455.378647 |G|=  0.004854 S_lin= 1.6951 S_tot= 2.1712
 ------------------------------------------------------------------------
  IRC -- convergence criterion reached.
 ----------------------------------------------------------------
             Standard Nuclear Orientation (Angstroms)
    I     Atom           X                Y                Z
 ----------------------------------------------------------------
    1      O      -0.4628443119     1.4062765168    -0.3338263962
    2      C       0.0001780212     0.4576397441     0.5699888494
    3      O      -0.9991184032    -0.4100108625     0.9945623619
    4      C       1.1585387697    -0.3123762542    -0.0500006829
    5      O       2.0694287861     0.4823349227    -0.5845675524
    6      O       1.2217330546    -1.5180777080    -0.0011624366
    7      H      -1.0496509914     2.0161099922     0.1307241003
    8      H      -0.6649513630    -1.3165348992     0.9062656099
    9      H       2.7994759286    -0.0533732966    -0.9357000371
   10      H       0.4330768658     0.9910550084     1.4857371922
   11      O       1.2872704652     1.6529693057     2.5904387587
   12      H       2.0679795783     1.7852775305     2.0246481329
 ----------------------------------------------------------------
 Nuclear Repulsion Energy =         325.39385223 hartrees
 There are       29 alpha and       28 beta electrons
 Here is where we should summarize the reaction path
 Total job time:  7149.73s(wall), 55371.93s(cpu) 
 Mon Jul 17 21:15:26 2023

        *************************************************************
        *                                                           *
        *  Thank you very much for using Q-Chem.  Have a nice day.  *
        *                                                           *
        *************************************************************


