
Running Job 1 of 2 Q_in.in
qchem Q_in.in_20006.0 /scratch/ari.fischer/qChem1627078.hpc-mn1/qchem20006/ 0
/usr/local/qchem-5.4.1/exe/qcprog.exe_s Q_in.in_20006.0 /scratch/ari.fischer/qChem1627078.hpc-mn1/qchem20006/
                  Welcome to Q-Chem
     A Quantum Leap Into The Future Of Chemistry


 Q-Chem 5.4, Q-Chem, Inc., Pleasanton, CA (2021)

 License issued to: Nanyang Technological University (site)

 E. Epifanovsky,  A. T. B. Gilbert,  Xintian Feng,  Joonho Lee,  Yuezhi Mao,  
 N. Mardirossian,  P. Pokhilko,  A. White,  M. Wormit,  M. P. Coons,  
 A. L. Dempwolff,  Zhengting Gan,  D. Hait,  P. R. Horn,  L. D. Jacobson,  
 I. Kaliman,  J. Kussmann,  A. W. Lange,  Ka Un Lao,  D. S. Levine,  Jie Liu,  
 S. C. McKenzie,  A. F. Morrison,  K. Nanda,  F. Plasser,  D. R. Rehn,  
 M. L. Vidal,  Zhi-Qiang You,  Ying Zhu,  B. Alam,  B. Albrecht,  
 A. Aldossary,  E. Alguire,  J. H. Andersen,  D. Barton,  K. Begam,  A. Behn,  
 Y. A. Bernard,  E. J. Berquist,  H. Burton,  A. Carreras,  K. Carter-Fenk,  
 R. Chakraborty,  A. D. Chien,  K. D. Closser,  V. Cofer-Shabica,  
 S. Dasgupta,  Jia Deng,  M. de Wergifosse,  M. Diedenhofen,  Hainam Do,  
 S. Ehlert,  Po-Tung Fang,  S. Fatehi,  Qingguo Feng,  T. Friedhoff,  
 J. Gayvert,  Qinghui Ge,  G. Gidofalvi,  M. Goldey,  J. Gomes,  
 C. Gonzalez-Espinoza,  S. Gulania,  A. Gunina,  M. W. D. Hanson-Heine,  
 P. H. P. Harbach,  A. W. Hauser,  M. F. Herbst,  M. Hernandez Vera,  
 M. Hodecker,  Z. C. Holden,  S. Houck,  Xunkun Huang,  Kerwin Hui,  
 B. C. Huynh,  M. Ivanov,  Hyunjun Ji,  Hanjie Jiang,  B. Kaduk,  S. Kaehler,  
 K. Khistyaev,  Jaehoon Kim,  P. Klunzinger,  Z. Koczor-Benda,  
 Joong Hoon Koh,  D. Kosenkov,  L. Koulias,  T. Kowalczyk,  C. M. Krauter,  
 K. Kue,  A. Kunitsa,  T. Kus,  A. Landau,  K. V. Lawler,  D. Lefrancois,  
 S. Lehtola,  Rain Li,  Yi-Pei Li,  Jiashu Liang,  M. Liebenthal,  
 Hung-Hsuan Lin,  You-Sheng Lin,  Fenglai Liu,  Kuan-Yu Liu,  
 M. Loipersberger,  A. Luenser,  A. Manjanath,  P. Manohar,  E. Mansoor,  
 S. F. Manzer,  Shan-Ping Mao,  A. V. Marenich,  T. Markovich,  S. Mason,  
 S. A. Maurer,  P. F. McLaughlin,  M. F. S. J. Menger,  J.-M. Mewes,  
 S. A. Mewes,  P. Morgante,  J. W. Mullinax,  K. J. Oosterbaan,  G. Paran,  
 Alexander C. Paul,  Suranjan K. Paul,  F. Pavosevic,  Zheng Pei,  S. Prager,  
 E. I. Proynov,  E. Ramos,  B. Rana,  A. E. Rask,  A. Rettig,  R. M. Richard,  
 F. Rob,  E. Rossomme,  T. Scheele,  M. Scheurer,  M. Schneider,  
 N. Sergueev,  S. M. Sharada,  W. Skomorowski,  D. W. Small,  C. J. Stein,  
 Yu-Chuan Su,  E. J. Sundstrom,  Zhen Tao,  J. Thirman,  T. Tsuchimochi,  
 N. M. Tubman,  S. P. Veccham,  O. Vydrov,  J. Wenzel,  J. Witte,  A. Yamada,  
 Kun Yao,  S. Yeganeh,  S. R. Yost,  A. Zech,  Igor Ying Zhang,  Xing Zhang,  
 Yu Zhang,  D. Zuev,  A. Aspuru-Guzik,  A. T. Bell,  N. A. Besley,  
 K. B. Bravaya,  B. R. Brooks,  D. Casanova,  Jeng-Da Chai,  S. Coriani,  
 C. J. Cramer,  A. E. DePrince, III,  R. A. DiStasio Jr.,  A. Dreuw,  
 B. D. Dunietz,  T. R. Furlani,  W. A. Goddard III,  S. Grimme,  
 S. Hammes-Schiffer,  T. Head-Gordon,  W. J. Hehre,  Chao-Ping Hsu,  
 T.-C. Jagau,  Yousung Jung,  A. Klamt,  Jing Kong,  D. S. Lambrecht,  
 WanZhen Liang,  N. J. Mayhall,  C. W. McCurdy,  J. B. Neaton,  
 C. Ochsenfeld,  J. A. Parkhill,  R. Peverati,  V. A. Rassolov,  Yihan Shao,  
 L. V. Slipchenko,  T. Stauch,  R. P. Steele,  J. E. Subotnik,  
 A. J. W. Thom,  A. Tkatchenko,  D. G. Truhlar,  T. Van Voorhis,  
 T. A. Wesolowski,  K. B. Whaley,  H. L. Woodcock III,  P. M. Zimmerman,  
 S. Faraji,  P. M. W. Gill,  M. Head-Gordon,  J. M. Herbert,  A. I. Krylov

 Additional authors for Version 5.4.1: 
 S. Kotaru,  Shaozhi Li,  Xiangyuan Li,  F. Matz,  A. Molle,  Haisheng Ren,  
 Yingli Su,  Hung-Yi Tsai,  C. Utku,  Fang Wang

 Contributors to earlier versions of Q-Chem not listed above: 
 R. D. Adamson,  B. Austin,  R. Baer,  J. Baker,  G. J. O. Beran,  
 K. Brandhorst,  S. T. Brown,  E. F. C. Byrd,  A. K. Chakraborty,  
 G. K. L. Chan,  Chun-Min Chang,  Yunqing Chen,  C.-L. Cheng,  
 Siu Hung Chien,  D. M. Chipman,  D. L. Crittenden,  H. Dachsel,  
 R. J. Doerksen,  A. D. Dutoi,  R. G. Edgar,  J. Fosso-Tande,  
 L. Fusti-Molnar,  D. Ghosh,  A. Ghysels,  A. Golubeva-Zadorozhnaya,  
 J. Gonthier,  M. S. Gordon,  S. R. Gwaltney,  G. Hawkins,  J. E. Herr,  
 A. Heyden,  S. Hirata,  E. G. Hohenstein,  G. Kedziora,  F. J. Keil,  
 C. Kelley,  Jihan Kim,  R. A. King,  R. Z. Khaliullin,  P. P. Korambath,  
 W. Kurlancheek,  A. Laurent,  A. M. Lee,  M. S. Lee,  S. V. Levchenko,  
 Ching Yeh Lin,  D. Liotard,  E. Livshits,  R. C. Lochan,  I. Lotan,  
 L. A. Martinez-Martinez,  P. E. Maslen,  N. Nair,  D. P. O'Neill,  
 D. Neuhauser,  E. Neuscamman,  C. M. Oana,  R. Olivares-Amaya,  R. Olson,  
 T. M. Perrine,  B. Peters,  P. A. Pieniazek,  A. Prociuk,  Y. M. Rhee,  
 J. Ritchie,  M. A. Rohrdanz,  E. Rosta,  N. J. Russ,  H. F. Schaefer III,  
 M. W. Schmidt,  N. E. Schultz,  S. Sharma,  N. Shenvi,  C. D. Sherrill,  
 A. C. Simmonett,  A. Sodt,  T. Stein,  D. Stuck,  K. S. Thanthiriwatte,  
 V. Vanovschi,  L. Vogt,  Tao Wang,  A. Warshel,  M. A. Watson,  
 C. F. Williams,  Q. Wu,  X. Xu,  Jun Yang,  W. Zhang,  Yan Zhao

 Please cite Q-Chem as follows:
 Y. Shao et al., Mol. Phys. 113, 184-215 (2015)
 DOI: 10.1080/00268976.2014.952696

 Q-Chem 5.4.1 for Intel X86 EM64T Linux

 Parts of Q-Chem use Armadillo 9.800.1 (Horizon Scraper).
 http://arma.sourceforge.net/

 Q-Chem begins on Mon Jul 17 12:21:52 2023  

 Host: 
0

     Scratch files written to /scratch/ari.fischer/qChem1627078.hpc-mn1/qchem20006//
 Aug1521 |scratch|qcdevops|jenkins|workspace|build_RNUM 8249   
 Processing $rem in /usr/local/qchem-5.4.1/config/preferences:
 Processing $rem in /home/ari.fischer/.qchemrc:
 Symmetry turned off for PCM/SM12/SMD calculation


!!********************************************.
!!******************Warning*******************.
!!Desired Analytical derivatives not available.
!!Finite difference job might take a long time.
!!********************************************.
!!********************************************.


 2-order derivative to be evaluated numerically with 1-order analytical derivatives

 Checking the input file for inconsistencies... 	...done.

--------------------------------------------------------------
User input:
--------------------------------------------------------------
$molecule
0 2
O   -0.8820247    1.0690563   -0.2833168
C   -0.0643048    0.4858447    0.6971505
O   -0.7508723   -0.5472826    1.3581975
C    1.1876969   -0.0532654    0.0533649
O    2.4070601    0.4068181    0.4067364
O    1.1033302   -0.9184384   -0.8040392
H   -1.5933885    1.5585038    0.2055143
H   -1.1573745   -1.1261802    0.6609745
H    3.2246410   -0.0566171   -0.1882382
H    0.3218659    1.4369544    1.5673464
O    1.5706511    1.7733809    1.7923166
H    2.4938360    1.1525155    1.3311010
$end

$rem
BASIS = 6-311++G(2df,2p)
GUI = 2
JOB_TYPE = Frequency
METHOD = wB97M-V
SCF_ALGORITHM = DIIS_GDM
MAX_SCF_CYCLES = 400
SCF_CONVERGENCE = 6
THRESH = 11
SYMMETRY_IGNORE = 1
solvent_method = SMD
$end

--------------------------------------------------------------
 ----------------------------------------------------------------
             Standard Nuclear Orientation (Angstroms)
    I     Atom           X                Y                Z
 ----------------------------------------------------------------
    1      O      -0.8820247000     1.0690563000    -0.2833168000
    2      C      -0.0643048000     0.4858447000     0.6971505000
    3      O      -0.7508723000    -0.5472826000     1.3581975000
    4      C       1.1876969000    -0.0532654000     0.0533649000
    5      O       2.4070601000     0.4068181000     0.4067364000
    6      O       1.1033302000    -0.9184384000    -0.8040392000
    7      H      -1.5933885000     1.5585038000     0.2055143000
    8      H      -1.1573745000    -1.1261802000     0.6609745000
    9      H       3.2246410000    -0.0566171000    -0.1882382000
   10      H       0.3218659000     1.4369544000     1.5673464000
   11      O       1.5706511000     1.7733809000     1.7923166000
   12      H       2.4938360000     1.1525155000     1.3311010000
 ----------------------------------------------------------------
 Nuclear Repulsion Energy =         334.61315395 hartrees
 There are       29 alpha and       28 beta electrons
 Requested basis set is 6-311++G(2df,2p)
 There are 86 shells and 288 basis functions

 Total QAlloc Memory Limit 288000 MB
 Mega-Array Size       188 MB
 MEM_STATIC part       192 MB
 
 Citation of the SMD model:
 Marenich, A.V.; Cramer, C.J.; Truhlar, D.G.
 J. Phys. Chem. B 2009, 113, 6378-6396.
 iSolventCode=           1
 Solvent: water                                                           
 
 vradii
            1           2           3           4           5           6
    1   1.5200000   1.8500000   1.5200000   1.8500000   1.5200000   1.5200000
            7           8           9          10          11          12
    1   1.2000000   1.2000000   1.2000000   1.2000000   1.5200000   1.2000000
 Changing PCM_VDW_RADII to SMD_RADIUS
 Discretize the solute cavity surface with Lebedev spheres
	Using 110 Lebedev grid points for each H atom
	Using 194 Lebedev grid points for other atoms
	Atomic van der Waals radii will be scaled by 1.20
 Remove points where switching function is < 1.0e-08
 Keep 997 surface tesserae and discard 911 interior tesserae
 Molecular Surface Area = 116.814 Angst**2

                       Distance Matrix (Angstroms)
             O (  1)   C (  2)   O (  3)   C (  4)   O (  5)   O (  6)
   C (  2)  1.403609
   O (  3)  2.307449  1.405600
   C (  4)  2.378383  1.507517  2.388450
   O (  5)  3.425319  2.489624  3.433384  1.350331
   O (  6)  2.857083  2.364097  2.872471  1.220977  2.218557
   H (  7)  0.992247  1.931425  2.544179  3.217978  4.167788  3.798254
   H (  8)  2.405528  1.948008  0.993220  2.649471  3.888433  2.701890
   H (  9)  4.259212  3.448963  4.293824  2.051225  1.112297  2.371056
   H ( 10)  2.238226  1.345726  2.265327  2.294027  2.599275  3.432496
   O ( 11)  3.289369  2.351642  3.311104  2.550930  2.118232  3.768998
   H ( 12)  3.742959  2.718534  3.663083  2.189182  1.190817  3.283471
             H (  7)   H (  8)   H (  9)   H ( 10)   O ( 11)
   H (  8)  2.757731
   H (  9)  5.096770  4.589901
   H ( 10)  2.353202  3.095048  3.706607
   O ( 11)  3.546161  4.138782  3.163412  1.312730
   H ( 12)  4.258776  4.355785  2.074721  2.203218  1.204352
 
 A cutoff of  1.0D-11 yielded   3447 shell pairs
 There are     38979 function pairs (     48959 Cartesian)
 Smallest overlap matrix eigenvalue = 3.99E-05
 Guess from superposition of atomic densities
 Warning:  Energy on first SCF cycle will be non-variational
 SAD guess density has 57.000000 electrons

 -----------------------------------------------------------------------
  General SCF calculation program by
  Eric Jon Sundstrom, Paul Horn, Yuezhi Mao, Dmitri Zuev, Alec White,
  David Stuck, Shaama M.S., Shane Yost, Joonho Lee, David Small,
  Daniel Levine, Susi Lehtola, Hugh Burton, Evgeny Epifanovsky,
  Bang C. Huynh
 -----------------------------------------------------------------------
 Exchange:     0.1500 Hartree-Fock + 1.0000 wB97M-V + LR-HF
 Correlation:  1.0000 wB97M-V
 Using SG-2 standard quadrature grid
 Nonlocal Correlation:  VV10 with C = 0.0100 and b = 6.00 and scale = 1.00000
 Grid used for NLC:  SG-1 standard quadrature
 using 16 threads for integral computing
 -------------------------------------------------------
 OpenMP Integral computing Module                
 Release: version 1.0, May 2013, Q-Chem Inc. Pittsburgh 
 -------------------------------------------------------
 
 Citation of the SMD model:
 Marenich, A.V.; Cramer, C.J.; Truhlar, D.G.
 J. Phys. Chem. B 2009, 113, 6378-6396.
 iSolventCode=           1
 Solvent: water                                                           
 
 vradii
            1           2           3           4           5           6
    1   1.5200000   1.8500000   1.5200000   1.8500000   1.5200000   1.5200000
            7           8           9          10          11          12
    1   1.2000000   1.2000000   1.2000000   1.2000000   1.5200000   1.2000000
 -------------------------------------------------------
 OpenMP BLAS3 based DFT computing Module                
 Release: version 1.0, May 2013, Q-Chem Inc. Pittsburgh 
 -------------------------------------------------------
 A unrestricted SCF calculation will be
 performed using DIIS, GDM
 SCF converges when RMS gradient is below 1.0e-06
 ---------------------------------------
  Cycle       Energy         DIIS error
 ---------------------------------------
    1    -456.2495317550      1.42e-02  
    2    -454.9128937903      2.91e-03  Done DIIS. Switching to GDM
 ---------------------------------------
  Cycle       Energy        RMS Gradient
 ---------------------------------------
    1    -454.9128937903      2.27e-01   Descent step
    2    -455.1636384744      5.02e-02   Normal BFGS step
    3    -455.2048617438      3.02e-02   Normal BFGS step
    4    -455.2101984364      1.55e-02   Normal BFGS step
    5    -455.2130616914      1.04e-02   Normal BFGS step
    6    -455.2134145548      7.29e-03   Normal BFGS step
    7    -455.2135798781      3.40e-03   Normal BFGS step
    8    -455.2136431820      2.28e-03   Normal BFGS step
    9    -455.2136671279      1.23e-03   Normal BFGS step
   10    -455.2136797911      6.91e-04   Normal BFGS step
   11    -455.2136828586      3.51e-04   Normal BFGS step
   12    -455.2136840545      1.73e-04   Normal BFGS step
   13    -455.2136843301      1.57e-04   Normal BFGS step
   14    -455.2136843977      1.30e-04   Normal BFGS step
   15    -455.2136844352      9.27e-05   Normal BFGS step
   16    -455.2136844612      4.86e-05   Normal BFGS step
   17    -455.2136844744      9.87e-06   Normal BFGS step
   18    -455.2136844774      4.20e-06   Normal BFGS step
   19    -455.2136844779      1.47e-06   Normal BFGS step
   20    -455.2136844779      4.86e-07  Convergence criterion met
 ---------------------------------------
 SCF time:   CPU 805.95s  wall 54.00s 
<S^2> =          0.757924486
(3)  G-ENP(liq) elect-nuc-pol free energy of system     -455.213684478 a.u.
(4)  G-CDS(liq) cavity-dispersion-solvent structure 
     free energy                                                4.2561 kcal/mol
(6)  G-S(liq) free energy of system                     -455.206901884 a.u.
 SCF   energy in the final basis set =     -455.2069018839
 Total energy in the final basis set =     -455.2069018839
 
 --------------------------------------------------------------
 
                    Orbital Energies (a.u.)
 --------------------------------------------------------------
 
 Alpha MOs
 -- Occupied --
-19.4323 -19.3717 -19.3658 -19.3575 -19.3168 -10.5195 -10.4901  -1.2797
 -1.2214  -1.1806  -1.1474  -1.0582  -0.8640  -0.7485  -0.7151  -0.6868
 -0.6430  -0.6187  -0.5925  -0.5759  -0.5567  -0.5077  -0.4764  -0.4668
 -0.4408  -0.4326  -0.4078  -0.3988  -0.3440
 -- Virtual --
  0.0262   0.0361   0.0421   0.0524   0.0656   0.0822   0.0886   0.1018
  0.1189   0.1214   0.1395   0.1428   0.1460   0.1638   0.1841   0.2148
  0.2240   0.2312   0.2375   0.2465   0.2630   0.2656   0.2742   0.2880
  0.2980   0.3082   0.3176   0.3209   0.3255   0.3351   0.3428   0.3512
  0.3569   0.3731   0.3821   0.3876   0.3968   0.3994   0.4163   0.4266
  0.4451   0.4670   0.4964   0.5162   0.5447   0.5628   0.5921   0.5979
  0.6175   0.6396   0.6600   0.6787   0.7003   0.7181   0.7521   0.7694
  0.7941   0.8288   0.8398   0.8472   0.8978   0.9240   0.9592   0.9692
  0.9798   1.0048   1.0450   1.0585   1.0814   1.1015   1.1310   1.1371
  1.1553   1.1606   1.1707   1.1853   1.2055   1.2096   1.2236   1.2312
  1.2398   1.2708   1.2951   1.3116   1.3322   1.3693   1.3853   1.3988
  1.4125   1.4414   1.4914   1.4930   1.5284   1.5462   1.5928   1.5950
  1.6143   1.6373   1.6798   1.6940   1.7101   1.7332   1.7660   1.8011
  1.8354   1.9062   1.9255   1.9348   1.9798   2.0400   2.0535   2.0967
  2.1183   2.1946   2.2186   2.2748   2.3014   2.3313   2.3383   2.3878
  2.4194   2.4210   2.4692   2.5280   2.5508   2.5657   2.6537   2.7270
  2.7433   2.8329   2.8705   2.8957   2.9728   3.0277   3.0568   3.1257
  3.1505   3.1597   3.2003   3.2396   3.2809   3.3112   3.3612   3.4111
  3.4455   3.5007   3.5136   3.5615   3.5942   3.6351   3.6763   3.6960
  3.7401   3.7935   3.8001   3.8067   3.8312   3.8592   3.8646   3.8776
  3.9022   3.9089   3.9412   4.0376   4.0602   4.0846   4.1229   4.1481
  4.1697   4.2213   4.2344   4.2710   4.3116   4.3988   4.4982   4.7297
  4.8254   5.0774   5.1076   5.1298   5.1471   5.1528   5.1650   5.1716
  5.1833   5.1919   5.2177   5.2325   5.2591   5.2726   5.2832   5.2885
  5.2955   5.3254   5.3333   5.3652   5.3822   5.4039   5.4423   5.4669
  5.4943   5.5110   5.5524   5.5599   5.5698   5.5895   5.6219   5.6586
  5.6728   5.7310   5.8093   5.8709   5.9304   5.9840   6.0525   6.0730
  6.0939   6.3516   6.3571   6.3909   6.6129   6.6523   6.6931   6.8993
  6.9154   6.9567   7.0005   7.0149   7.0453   7.0594   7.0864   7.0913
  7.1265   7.1584   7.2203   7.2470   7.2703   7.2839   7.3444   7.3765
  7.4580   7.5137   7.5599   7.5949   7.6110   7.6559   7.7118   7.7789
  7.8111   7.8507   7.8677   7.9983  24.6556  25.0722  50.4989  50.5343
 50.5558  50.5804  50.7382
 
 Beta MOs
 -- Occupied --
-19.4326 -19.3703 -19.3651 -19.3574 -19.2994 -10.5197 -10.4829  -1.2791
 -1.2177  -1.1794  -1.1445  -1.0163  -0.8569  -0.7460  -0.7074  -0.6803
 -0.6391  -0.6034  -0.5913  -0.5661  -0.5545  -0.4756  -0.4695  -0.4638
 -0.4327  -0.4251  -0.3850  -0.3670
 -- Virtual --
 -0.0395   0.0278   0.0364   0.0429   0.0527   0.0675   0.0825   0.0890
  0.1020   0.1196   0.1217   0.1406   0.1428   0.1454   0.1657   0.1846
  0.2156   0.2273   0.2331   0.2384   0.2487   0.2649   0.2672   0.2783
  0.2895   0.2983   0.3108   0.3195   0.3241   0.3260   0.3359   0.3466
  0.3524   0.3583   0.3745   0.3858   0.3922   0.4008   0.4037   0.4185
  0.4284   0.4468   0.4691   0.4985   0.5176   0.5463   0.5669   0.5943
  0.6007   0.6200   0.6426   0.6606   0.6810   0.7064   0.7212   0.7555
  0.7707   0.7978   0.8306   0.8422   0.8522   0.8997   0.9255   0.9607
  0.9747   0.9808   1.0066   1.0467   1.0644   1.0858   1.1043   1.1330
  1.1426   1.1569   1.1624   1.1726   1.1885   1.2108   1.2127   1.2343
  1.2354   1.2454   1.2800   1.2976   1.3176   1.3363   1.3728   1.3936
  1.4026   1.4151   1.4440   1.4924   1.4996   1.5310   1.5511   1.5962
  1.5978   1.6190   1.6398   1.6867   1.7059   1.7205   1.7364   1.7763
  1.8107   1.8364   1.9101   1.9311   1.9380   1.9853   2.0482   2.0592
  2.1042   2.1245   2.1967   2.2243   2.2768   2.3065   2.3370   2.3425
  2.3909   2.4243   2.4262   2.4783   2.5313   2.5531   2.5735   2.6595
  2.7301   2.7464   2.8343   2.8743   2.9011   2.9768   3.0332   3.0572
  3.1332   3.1544   3.1793   3.2024   3.2449   3.2847   3.3167   3.3679
  3.4162   3.4560   3.5046   3.5255   3.5700   3.5964   3.6407   3.6934
  3.7119   3.7477   3.8001   3.8025   3.8123   3.8393   3.8615   3.8684
  3.8826   3.9114   3.9165   3.9451   4.0364   4.0563   4.0872   4.1238
  4.1513   4.1764   4.2268   4.2359   4.2774   4.3151   4.4086   4.5013
  4.7365   4.8374   5.0809   5.1168   5.1465   5.1611   5.1727   5.1786
  5.1946   5.1950   5.2026   5.2271   5.2539   5.2629   5.2832   5.2930
  5.2982   5.3106   5.3305   5.3571   5.3907   5.3944   5.4303   5.4495
  5.4761   5.4995   5.5170   5.5548   5.5682   5.5778   5.5928   5.6253
  5.6614   5.6812   5.7481   5.8148   5.8739   5.9366   5.9894   6.0578
  6.0867   6.0983   6.3557   6.3590   6.3968   6.6177   6.6539   6.6985
  6.9170   6.9544   6.9642   7.0132   7.0194   7.0582   7.0789   7.0889
  7.1217   7.1483   7.1658   7.2283   7.2559   7.2746   7.2885   7.3471
  7.3796   7.4815   7.5195   7.5961   7.6057   7.6186   7.6721   7.7339
  7.7806   7.8144   7.8550   7.8764   8.0021  24.6618  25.0725  50.5063
 50.5371  50.5569  50.5826  50.7385
 --------------------------------------------------------------
 
          Ground-State Mulliken Net Atomic Charges

     Atom                 Charge (a.u.)    Spin (a.u.)
  --------------------------------------------------------
      1 O                    -0.362059       0.034063
      2 C                    -0.103424       0.348457
      3 O                    -0.380437       0.003591
      4 C                     0.389747      -0.020085
      5 O                    -0.235212       0.006885
      6 O                    -0.449666       0.006973
      7 H                     0.361249      -0.001778
      8 H                     0.359471       0.017673
      9 H                     0.451963      -0.001350
     10 H                     0.298097      -0.020501
     11 O                    -0.698495       0.624059
     12 H                     0.368766       0.002014
  --------------------------------------------------------
  Sum of atomic charges =     0.000000
  Sum of spin   charges =     1.000000

 -----------------------------------------------------------------
                    Cartesian Multipole Moments
 -----------------------------------------------------------------
    Charge (ESU x 10^10)
                 0.0000
    Dipole Moment (Debye)
         X       1.7905      Y      -1.4814      Z      -1.9627
       Tot       3.0418
    Quadrupole Moments (Debye-Ang)
        XX     -18.5253     XY      -5.3504     YY     -48.3076
        XZ      -4.4937     YZ      -6.0619     ZZ     -55.4273
    Octopole Moments (Debye-Ang^2)
       XXX     -13.4368    XXY     -14.6668    XYY     -51.0439
       YYY     -61.6709    XXZ     -25.5251    XYZ     -15.0543
       YYZ     -32.2927    XZZ     -36.0273    YZZ     -26.6538
       ZZZ     -88.9450
    Hexadecapole Moments (Debye-Ang^3)
      XXXX    -217.0667   XXXY     -52.4030   XXYY    -130.4023
      XYYY     -80.2583   YYYY    -313.1045   XXXZ     -51.5523
      XXYZ     -33.7884   XYYZ     -41.8352   YYYZ    -104.7051
      XXZZ    -147.3036   XYZZ     -38.7184   YYZZ    -130.6838
      XZZZ     -67.4502   YZZZ    -102.6398   ZZZZ    -356.8434
 -----------------------------------------------------------------
 Calculating analytic gradient of the SCF energy
 Gradient of CDS energy
            1           2           3           4           5           6
    1   0.0019124  -0.0035968   0.0014669   0.0024780  -0.0023908   0.0000641
    2  -0.0015300  -0.0006955   0.0022808  -0.0006479  -0.0007756   0.0010708
    3   0.0023786  -0.0005237  -0.0015627  -0.0008419  -0.0006563   0.0009834
            7           8           9          10          11          12
    1  -0.0004002  -0.0003701   0.0004324   0.0001857  -0.0001444   0.0003630
    2   0.0002940  -0.0003411  -0.0000056   0.0001866   0.0000804   0.0000830
    3  -0.0001222   0.0000514  -0.0000559   0.0001246   0.0000122   0.0002124
 Gradient of SCF Energy
            1           2           3           4           5           6
    1   0.0109370   0.0222970   0.0015984  -0.0036581  -0.1087687  -0.0063797
    2  -0.0148912  -0.0212126   0.0067821   0.0379283   0.0832827  -0.0229971
    3  -0.0265313  -0.0203229   0.0239041   0.0479873   0.0952018  -0.0252979
            7           8           9          10          11          12
    1  -0.0268754  -0.0154520   0.0861990  -0.0167782  -0.0144822   0.0713629
    2   0.0184716  -0.0182202  -0.0364900   0.0283322  -0.0284981  -0.0324878
    3   0.0200823  -0.0214792  -0.0518064   0.0172858  -0.0375344  -0.0214893
 Max gradient component =       1.088E-01
 RMS gradient           =       4.089E-02
 Computing fast CPCM-SWIG gradient
 Updating gradient with PCM contributions...
 -- total gradient after adding PCM contribution --
---------------------------------------------------
  Atom         X              Y              Z     
---------------------------------------------------
   1       0.000189      -0.009550      -0.015342
   2       0.017652      -0.020909      -0.021519
   3      -0.002841       0.002987       0.011882
   4      -0.004096       0.035647       0.043975
   5      -0.083107       0.073414       0.084030
   6      -0.001245      -0.017492      -0.017471
   7      -0.015822       0.011672       0.012501
   8      -0.009661      -0.012398      -0.014117
   9       0.062321      -0.028659      -0.040864
  10      -0.014690       0.029882       0.020366
  11      -0.010300      -0.035859      -0.043215
  12       0.061600      -0.028734      -0.020227
---------------------------------------------------
 Number of fixed atoms: 0
 Gradient time:  CPU 88.85 s  wall 7.93 s
 ######################################################
 ######################################################
 # Starting finite difference calculation for IDERIV  #
 Finite diff step size:  1.88973e-03 a.u.
 ----------------------------------------------------------------
             Standard Nuclear Orientation (Angstroms)
    I     Atom           X                Y                Z
 ----------------------------------------------------------------
    1      O      -0.8810247000     1.0690563000    -0.2833168000
    2      C      -0.0643048000     0.4858447000     0.6971505000
    3      O      -0.7508723000    -0.5472826000     1.3581975000
    4      C       1.1876969000    -0.0532654000     0.0533649000
    5      O       2.4070601000     0.4068181000     0.4067364000
    6      O       1.1033302000    -0.9184384000    -0.8040392000
    7      H      -1.5933885000     1.5585038000     0.2055143000
    8      H      -1.1573745000    -1.1261802000     0.6609745000
    9      H       3.2246410000    -0.0566171000    -0.1882382000
   10      H       0.3218659000     1.4369544000     1.5673464000
   11      O       1.5706511000     1.7733809000     1.7923166000
   12      H       2.4938360000     1.1525155000     1.3311010000
 ----------------------------------------------------------------
 Nuclear Repulsion Energy =         334.63071107 hartrees
 There are       29 alpha and       28 beta electrons
 Discretize the solute cavity surface with Lebedev spheres
	Using 110 Lebedev grid points for each H atom
	Using 194 Lebedev grid points for other atoms
	Atomic van der Waals radii will be scaled by 1.20
 Remove points where switching function is < 1.0e-08
 Keep 997 surface tesserae and discard 911 interior tesserae
 Molecular Surface Area = 116.814 Angst**2

                       Distance Matrix (Angstroms)
             O (  1)   C (  2)   O (  3)   C (  4)   O (  5)   O (  6)
   C (  2)  1.403026
   O (  3)  2.307393  1.405600
   C (  4)  2.377513  1.507517  2.388450
   O (  5)  3.424359  2.489624  3.433384  1.350331
   O (  6)  2.856388  2.364097  2.872471  1.220977  2.218557
   H (  7)  0.992964  1.931425  2.544179  3.217978  4.167788  3.798254
   H (  8)  2.405643  1.948008  0.993220  2.649471  3.888433  2.701890
   H (  9)  4.258247  3.448963  4.293824  2.051225  1.112297  2.371056
   H ( 10)  2.237688  1.345726  2.265327  2.294027  2.599275  3.432496
   O ( 11)  3.288623  2.351642  3.311104  2.550930  2.118232  3.768998
   H ( 12)  3.742058  2.718534  3.663083  2.189182  1.190817  3.283471
             H (  7)   H (  8)   H (  9)   H ( 10)   O ( 11)
   H (  8)  2.757731
   H (  9)  5.096770  4.589901
   H ( 10)  2.353202  3.095048  3.706607
   O ( 11)  3.546161  4.138782  3.163412  1.312730
   H ( 12)  4.258776  4.355785  2.074721  2.203218  1.204352
 
 Requested basis set is 6-311++G(2df,2p)
 There are 86 shells and 288 basis functions
 A cutoff of  1.0D-11 yielded   3447 shell pairs
 There are     38979 function pairs (     48959 Cartesian)
 Smallest overlap matrix eigenvalue = 3.99E-05
 Guess MOs from SCF MO coefficient file

 -----------------------------------------------------------------------
  General SCF calculation program by
  Eric Jon Sundstrom, Paul Horn, Yuezhi Mao, Dmitri Zuev, Alec White,
  David Stuck, Shaama M.S., Shane Yost, Joonho Lee, David Small,
  Daniel Levine, Susi Lehtola, Hugh Burton, Evgeny Epifanovsky,
  Bang C. Huynh
 -----------------------------------------------------------------------
 Exchange:     0.1500 Hartree-Fock + 1.0000 wB97M-V + LR-HF
 Correlation:  1.0000 wB97M-V
 Using SG-2 standard quadrature grid
 Nonlocal Correlation:  VV10 with C = 0.0100 and b = 6.00 and scale = 1.00000
 Grid used for NLC:  SG-1 standard quadrature
 
 Citation of the SMD model:
 Marenich, A.V.; Cramer, C.J.; Truhlar, D.G.
 J. Phys. Chem. B 2009, 113, 6378-6396.
 iSolventCode=           1
 Solvent: water                                                           
 
 vradii
            1           2           3           4           5           6
    1   1.5200000   1.8500000   1.5200000   1.8500000   1.5200000   1.5200000
            7           8           9          10          11          12
    1   1.2000000   1.2000000   1.2000000   1.2000000   1.5200000   1.2000000
 -------------------------------------------------------
 OpenMP BLAS3 based DFT computing Module                
 Release: version 1.0, May 2013, Q-Chem Inc. Pittsburgh 
 -------------------------------------------------------
 A unrestricted SCF calculation will be
 performed using Roothaan-Hall, DIIS, GDM
 SCF converges when RMS gradient is below 1.0e-06
 ---------------------------------------
  Cycle       Energy         DIIS error
 ---------------------------------------
    1    -455.1564798401      3.36e-04  Roothaan Step
 ---------------------------------------
  Cycle       Energy         DIIS error
 ---------------------------------------
    1    -455.2041068350      3.89e-04  
    2    -455.2089796672      4.04e-04  Done DIIS. Switching to GDM
 ---------------------------------------
  Cycle       Energy        RMS Gradient
 ---------------------------------------
    1    -455.2089796672      1.49e-02   Normal BFGS step
    2    -455.2063644943      2.42e-02  Line search: overstep
    3    -455.2134050295      3.24e-03   Normal BFGS step
    4    -455.2136284566      2.41e-03   Normal BFGS step
    5    -455.2136657109      1.06e-03   Normal BFGS step
    6    -455.2136785119      1.49e-03   Normal BFGS step
    7    -455.2136824339      9.14e-04   Normal BFGS step
    8    -455.2136855029      5.47e-04   Normal BFGS step
    9    -455.2136867161      2.47e-04   Normal BFGS step
   10    -455.2136869748      1.14e-04   Normal BFGS step
   11    -455.2136870540      5.12e-05   Normal BFGS step
   12    -455.2136870787      3.27e-05   Normal BFGS step
   13    -455.2136870838      2.83e-05   Normal BFGS step
   14    -455.2136870863      2.27e-05   Normal BFGS step
   15    -455.2136870876      1.45e-05   Normal BFGS step
   16    -455.2136870883      7.31e-06   Normal BFGS step
   17    -455.2136870886      1.79e-06   Normal BFGS step
   18    -455.2136870887      8.07e-07  Convergence criterion met
 ---------------------------------------
 SCF time:   CPU 828.92s  wall 56.00s 
<S^2> =          0.757925614
(3)  G-ENP(liq) elect-nuc-pol free energy of system     -455.213687089 a.u.
(4)  G-CDS(liq) cavity-dispersion-solvent structure 
     free energy                                                4.2585 kcal/mol
(6)  G-S(liq) free energy of system                     -455.206900815 a.u.
 SCF   energy in the final basis set =     -455.2069008145
 Total energy in the final basis set =     -455.2069008145
 
 --------------------------------------------------------------
 
                    Orbital Energies (a.u.)
 --------------------------------------------------------------
 
 Alpha MOs
 -- Occupied --
-19.4323 -19.3718 -19.3658 -19.3575 -19.3168 -10.5195 -10.4901  -1.2796
 -1.2214  -1.1806  -1.1474  -1.0582  -0.8639  -0.7485  -0.7151  -0.6868
 -0.6430  -0.6187  -0.5925  -0.5759  -0.5567  -0.5077  -0.4764  -0.4668
 -0.4408  -0.4326  -0.4077  -0.3988  -0.3439
 -- Virtual --
  0.0262   0.0361   0.0422   0.0524   0.0656   0.0822   0.0886   0.1018
  0.1189   0.1214   0.1395   0.1428   0.1460   0.1638   0.1841   0.2148
  0.2240   0.2312   0.2374   0.2465   0.2630   0.2656   0.2742   0.2880
  0.2980   0.3082   0.3176   0.3209   0.3255   0.3351   0.3428   0.3512
  0.3569   0.3731   0.3821   0.3876   0.3968   0.3994   0.4163   0.4266
  0.4451   0.4670   0.4964   0.5162   0.5447   0.5627   0.5921   0.5978
  0.6176   0.6396   0.6601   0.6787   0.7004   0.7181   0.7521   0.7694
  0.7941   0.8288   0.8397   0.8472   0.8979   0.9241   0.9592   0.9692
  0.9798   1.0049   1.0450   1.0585   1.0815   1.1015   1.1310   1.1372
  1.1553   1.1607   1.1707   1.1854   1.2055   1.2096   1.2237   1.2313
  1.2398   1.2708   1.2952   1.3116   1.3322   1.3693   1.3853   1.3988
  1.4126   1.4414   1.4911   1.4930   1.5283   1.5463   1.5929   1.5950
  1.6142   1.6373   1.6798   1.6940   1.7101   1.7334   1.7662   1.8011
  1.8353   1.9061   1.9256   1.9349   1.9798   2.0401   2.0536   2.0968
  2.1182   2.1946   2.2187   2.2749   2.3015   2.3315   2.3385   2.3880
  2.4195   2.4212   2.4694   2.5280   2.5509   2.5658   2.6537   2.7270
  2.7434   2.8328   2.8702   2.8959   2.9729   3.0278   3.0569   3.1258
  3.1505   3.1597   3.2003   3.2396   3.2810   3.3112   3.3614   3.4111
  3.4456   3.5007   3.5136   3.5615   3.5943   3.6351   3.6763   3.6959
  3.7402   3.7934   3.8001   3.8068   3.8312   3.8593   3.8645   3.8776
  3.9023   3.9093   3.9412   4.0376   4.0602   4.0845   4.1229   4.1481
  4.1695   4.2211   4.2340   4.2710   4.3112   4.3988   4.4983   4.7297
  4.8255   5.0774   5.1077   5.1298   5.1472   5.1528   5.1651   5.1716
  5.1833   5.1920   5.2177   5.2324   5.2591   5.2725   5.2833   5.2886
  5.2955   5.3255   5.3333   5.3653   5.3822   5.4040   5.4422   5.4669
  5.4943   5.5109   5.5520   5.5599   5.5695   5.5891   5.6219   5.6585
  5.6729   5.7310   5.8096   5.8708   5.9304   5.9842   6.0530   6.0731
  6.0948   6.3521   6.3572   6.3910   6.6130   6.6524   6.6941   6.8993
  6.9155   6.9566   7.0005   7.0149   7.0453   7.0593   7.0865   7.0912
  7.1248   7.1568   7.2203   7.2469   7.2703   7.2839   7.3444   7.3766
  7.4580   7.5138   7.5599   7.5951   7.6112   7.6561   7.7119   7.7789
  7.8113   7.8509   7.8677   7.9984  24.6566  25.0722  50.4990  50.5343
 50.5557  50.5804  50.7382
 
 Beta MOs
 -- Occupied --
-19.4326 -19.3704 -19.3651 -19.3574 -19.2994 -10.5196 -10.4829  -1.2791
 -1.2178  -1.1794  -1.1445  -1.0163  -0.8569  -0.7460  -0.7074  -0.6803
 -0.6391  -0.6034  -0.5913  -0.5662  -0.5545  -0.4756  -0.4695  -0.4638
 -0.4326  -0.4251  -0.3849  -0.3670
 -- Virtual --
 -0.0394   0.0278   0.0364   0.0429   0.0527   0.0675   0.0825   0.0890
  0.1020   0.1196   0.1217   0.1406   0.1428   0.1454   0.1657   0.1846
  0.2156   0.2273   0.2332   0.2382   0.2487   0.2649   0.2672   0.2783
  0.2895   0.2984   0.3108   0.3195   0.3241   0.3260   0.3359   0.3466
  0.3524   0.3584   0.3745   0.3859   0.3922   0.4009   0.4038   0.4185
  0.4284   0.4468   0.4691   0.4985   0.5177   0.5462   0.5668   0.5943
  0.6006   0.6200   0.6426   0.6606   0.6809   0.7065   0.7212   0.7555
  0.7707   0.7978   0.8306   0.8422   0.8522   0.8997   0.9256   0.9607
  0.9747   0.9808   1.0066   1.0467   1.0644   1.0859   1.1043   1.1330
  1.1426   1.1569   1.1624   1.1726   1.1885   1.2108   1.2127   1.2343
  1.2355   1.2454   1.2800   1.2977   1.3177   1.3363   1.3728   1.3936
  1.4026   1.4151   1.4440   1.4920   1.4996   1.5309   1.5512   1.5963
  1.5978   1.6190   1.6398   1.6867   1.7059   1.7205   1.7366   1.7764
  1.8107   1.8364   1.9100   1.9312   1.9381   1.9853   2.0482   2.0592
  2.1042   2.1244   2.1967   2.2245   2.2769   2.3067   2.3372   2.3426
  2.3911   2.4245   2.4264   2.4784   2.5313   2.5531   2.5736   2.6595
  2.7301   2.7465   2.8343   2.8740   2.9013   2.9770   3.0333   3.0573
  3.1333   3.1545   3.1793   3.2024   3.2449   3.2848   3.3168   3.3681
  3.4163   3.4561   3.5046   3.5256   3.5701   3.5964   3.6407   3.6933
  3.7119   3.7477   3.8001   3.8025   3.8123   3.8393   3.8615   3.8683
  3.8826   3.9115   3.9168   3.9451   4.0364   4.0563   4.0871   4.1237
  4.1514   4.1762   4.2267   4.2356   4.2774   4.3147   4.4086   4.5013
  4.7365   4.8374   5.0809   5.1169   5.1465   5.1611   5.1728   5.1786
  5.1947   5.1950   5.2027   5.2272   5.2539   5.2629   5.2832   5.2930
  5.2982   5.3107   5.3306   5.3571   5.3907   5.3945   5.4303   5.4494
  5.4762   5.4994   5.5170   5.5544   5.5679   5.5778   5.5924   5.6253
  5.6613   5.6812   5.7481   5.8150   5.8739   5.9366   5.9896   6.0583
  6.0868   6.0991   6.3562   6.3592   6.3968   6.6177   6.6540   6.6995
  6.9170   6.9544   6.9641   7.0132   7.0194   7.0581   7.0789   7.0890
  7.1199   7.1481   7.1643   7.2283   7.2560   7.2747   7.2885   7.3471
  7.3797   7.4815   7.5196   7.5963   7.6058   7.6187   7.6722   7.7339
  7.7806   7.8146   7.8552   7.8765   8.0022  24.6628  25.0726  50.5063
 50.5371  50.5568  50.5827  50.7386
 --------------------------------------------------------------
 
          Ground-State Mulliken Net Atomic Charges

     Atom                 Charge (a.u.)    Spin (a.u.)
  --------------------------------------------------------
      1 O                    -0.361903       0.034151
      2 C                    -0.103233       0.348586
      3 O                    -0.380521       0.003594
      4 C                     0.389630      -0.020102
      5 O                    -0.235201       0.006885
      6 O                    -0.449756       0.006972
      7 H                     0.361491      -0.001774
      8 H                     0.359452       0.017690
      9 H                     0.451932      -0.001353
     10 H                     0.298072      -0.020470
     11 O                    -0.698726       0.623793
     12 H                     0.368761       0.002028
  --------------------------------------------------------
  Sum of atomic charges =     0.000000
  Sum of spin   charges =     1.000000

 -----------------------------------------------------------------
                    Cartesian Multipole Moments
 -----------------------------------------------------------------
    Charge (ESU x 10^10)
                 0.0000
    Dipole Moment (Debye)
         X       1.7836      Y      -1.4812      Z      -1.9657
       Tot       3.0396
    Quadrupole Moments (Debye-Ang)
        XX     -18.5247     XY      -5.3587     YY     -48.3102
        XZ      -4.4960     YZ      -6.0672     ZZ     -55.4332
    Octopole Moments (Debye-Ang^2)
       XXX     -13.4788    XXY     -14.6667    XYY     -51.0643
       YYY     -61.6783    XXZ     -25.5352    XYZ     -15.0614
       YYZ     -32.3041    XZZ     -36.0436    YZZ     -26.6632
       ZZZ     -88.9614
    Hexadecapole Moments (Debye-Ang^3)
      XXXX    -217.0392   XXXY     -52.4467   XXYY    -130.4034
      XYYY     -80.3050   YYYY    -313.1333   XXXZ     -51.5599
      XXYZ     -33.8060   XYYZ     -41.8490   YYYZ    -104.7339
      XXZZ    -147.3140   XYZZ     -38.7443   YYZZ    -130.7080
      XZZZ     -67.4658   YZZZ    -102.6701   ZZZZ    -356.8862
 -----------------------------------------------------------------
 Calculating analytic gradient of the SCF energy
 Gradient of CDS energy
            1           2           3           4           5           6
    1   0.0019820  -0.0036671   0.0014670   0.0024780  -0.0023908   0.0000642
    2  -0.0015807  -0.0006442   0.0022808  -0.0006479  -0.0007756   0.0010707
    3   0.0024649  -0.0006108  -0.0015626  -0.0008416  -0.0006563   0.0009834
            7           8           9          10          11          12
    1  -0.0003999  -0.0003701   0.0004324   0.0001857  -0.0001444   0.0003630
    2   0.0002935  -0.0003411  -0.0000056   0.0001867   0.0000804   0.0000830
    3  -0.0001218   0.0000516  -0.0000559   0.0001245   0.0000122   0.0002124
 Gradient of SCF Energy
            1           2           3           4           5           6
    1   0.0117192   0.0219951   0.0016408  -0.0037115  -0.1087760  -0.0063765
    2  -0.0153403  -0.0210584   0.0067803   0.0379525   0.0832844  -0.0229959
    3  -0.0265785  -0.0204993   0.0239152   0.0479229   0.0952071  -0.0252882
            7           8           9          10          11          12
    1  -0.0273101  -0.0154559   0.0861926  -0.0168204  -0.0144617   0.0713643
    2   0.0187461  -0.0182182  -0.0364885   0.0283244  -0.0284947  -0.0324916
    3   0.0203806  -0.0214859  -0.0518027   0.0172506  -0.0375273  -0.0214947
 Max gradient component =       1.088E-01
 RMS gradient           =       4.091E-02
 Computing fast CPCM-SWIG gradient
 Updating gradient with PCM contributions...
 -- total gradient after adding PCM contribution --
---------------------------------------------------
  Atom         X              Y              Z     
---------------------------------------------------
   1       0.000942      -0.009993      -0.015384
   2       0.017343      -0.020753      -0.021699
   3      -0.002805       0.002987       0.011884
   4      -0.004142       0.035670       0.043917
   5      -0.083121       0.073420       0.084041
   6      -0.001245      -0.017494      -0.017464
   7      -0.016232       0.011940       0.012796
   8      -0.009658      -0.012398      -0.014117
   9       0.062321      -0.028659      -0.040863
  10      -0.014730       0.029875       0.020333
  11      -0.010285      -0.035860      -0.043213
  12       0.061611      -0.028736      -0.020230
---------------------------------------------------
 Number of fixed atoms: 0
 Gradient time:  CPU 105.19 s  wall 9.31 s
 ----------------------------------------------------------------
             Standard Nuclear Orientation (Angstroms)
    I     Atom           X                Y                Z
 ----------------------------------------------------------------
    1      O      -0.8830247000     1.0690563000    -0.2833168000
    2      C      -0.0643048000     0.4858447000     0.6971505000
    3      O      -0.7508723000    -0.5472826000     1.3581975000
    4      C       1.1876969000    -0.0532654000     0.0533649000
    5      O       2.4070601000     0.4068181000     0.4067364000
    6      O       1.1033302000    -0.9184384000    -0.8040392000
    7      H      -1.5933885000     1.5585038000     0.2055143000
    8      H      -1.1573745000    -1.1261802000     0.6609745000
    9      H       3.2246410000    -0.0566171000    -0.1882382000
   10      H       0.3218659000     1.4369544000     1.5673464000
   11      O       1.5706511000     1.7733809000     1.7923166000
   12      H       2.4938360000     1.1525155000     1.3311010000
 ----------------------------------------------------------------
 Nuclear Repulsion Energy =         334.59560167 hartrees
 There are       29 alpha and       28 beta electrons
 Discretize the solute cavity surface with Lebedev spheres
	Using 110 Lebedev grid points for each H atom
	Using 194 Lebedev grid points for other atoms
	Atomic van der Waals radii will be scaled by 1.20
 Remove points where switching function is < 1.0e-08
 Keep 997 surface tesserae and discard 911 interior tesserae
 Molecular Surface Area = 116.815 Angst**2

                       Distance Matrix (Angstroms)
             O (  1)   C (  2)   O (  3)   C (  4)   O (  5)   O (  6)
   C (  2)  1.404192
   O (  3)  2.307506  1.405600
   C (  4)  2.379254  1.507517  2.388450
   O (  5)  3.426279  2.489624  3.433384  1.350331
   O (  6)  2.857778  2.364097  2.872471  1.220977  2.218557
   H (  7)  0.991530  1.931425  2.544179  3.217978  4.167788  3.798254
   H (  8)  2.405414  1.948008  0.993220  2.649471  3.888433  2.701890
   H (  9)  4.260176  3.448963  4.293824  2.051225  1.112297  2.371056
   H ( 10)  2.238764  1.345726  2.265327  2.294027  2.599275  3.432496
   O ( 11)  3.290114  2.351642  3.311104  2.550930  2.118232  3.768998
   H ( 12)  3.743861  2.718534  3.663083  2.189182  1.190817  3.283471
             H (  7)   H (  8)   H (  9)   H ( 10)   O ( 11)
   H (  8)  2.757731
   H (  9)  5.096770  4.589901
   H ( 10)  2.353202  3.095048  3.706607
   O ( 11)  3.546161  4.138782  3.163412  1.312730
   H ( 12)  4.258776  4.355785  2.074721  2.203218  1.204352
 
 Requested basis set is 6-311++G(2df,2p)
 There are 86 shells and 288 basis functions
 A cutoff of  1.0D-11 yielded   3447 shell pairs
 There are     38979 function pairs (     48959 Cartesian)
 Smallest overlap matrix eigenvalue = 4.00E-05
 Guess MOs from SCF MO coefficient file

 -----------------------------------------------------------------------
  General SCF calculation program by
  Eric Jon Sundstrom, Paul Horn, Yuezhi Mao, Dmitri Zuev, Alec White,
  David Stuck, Shaama M.S., Shane Yost, Joonho Lee, David Small,
  Daniel Levine, Susi Lehtola, Hugh Burton, Evgeny Epifanovsky,
  Bang C. Huynh
 -----------------------------------------------------------------------
 Exchange:     0.1500 Hartree-Fock + 1.0000 wB97M-V + LR-HF
 Correlation:  1.0000 wB97M-V
 Using SG-2 standard quadrature grid
 Nonlocal Correlation:  VV10 with C = 0.0100 and b = 6.00 and scale = 1.00000
 Grid used for NLC:  SG-1 standard quadrature
 
 Citation of the SMD model:
 Marenich, A.V.; Cramer, C.J.; Truhlar, D.G.
 J. Phys. Chem. B 2009, 113, 6378-6396.
 iSolventCode=           1
 Solvent: water                                                           
 
 vradii
            1           2           3           4           5           6
    1   1.5200000   1.8500000   1.5200000   1.8500000   1.5200000   1.5200000
            7           8           9          10          11          12
    1   1.2000000   1.2000000   1.2000000   1.2000000   1.5200000   1.2000000
 -------------------------------------------------------
 OpenMP BLAS3 based DFT computing Module                
 Release: version 1.0, May 2013, Q-Chem Inc. Pittsburgh 
 -------------------------------------------------------
 A unrestricted SCF calculation will be
 performed using Roothaan-Hall, DIIS, GDM
 SCF converges when RMS gradient is below 1.0e-06
 ---------------------------------------
  Cycle       Energy         DIIS error
 ---------------------------------------
    1    -455.1564827903      3.36e-04  Roothaan Step
 ---------------------------------------
  Cycle       Energy         DIIS error
 ---------------------------------------
    1    -455.2041039004      3.89e-04  
    2    -455.2089769951      4.04e-04  Done DIIS. Switching to GDM
 ---------------------------------------
  Cycle       Energy        RMS Gradient
 ---------------------------------------
    1    -455.2089769951      1.49e-02   Normal BFGS step
    2    -455.2063592261      2.43e-02  Line search: overstep
    3    -455.2134001688      3.16e-03   Normal BFGS step
    4    -455.2136230951      2.35e-03   Normal BFGS step
    5    -455.2136598267      1.01e-03   Normal BFGS step
    6    -455.2136723702      1.46e-03   Normal BFGS step
    7    -455.2136761168      8.89e-04   Normal BFGS step
    8    -455.2136790101      5.42e-04   Normal BFGS step
    9    -455.2136802164      2.42e-04   Normal BFGS step
   10    -455.2136804640      1.12e-04   Normal BFGS step
   11    -455.2136805411      5.14e-05   Normal BFGS step
   12    -455.2136805647      3.01e-05   Normal BFGS step
   13    -455.2136805694      2.64e-05   Normal BFGS step
   14    -455.2136805717      2.14e-05   Normal BFGS step
   15    -455.2136805728      1.40e-05   Normal BFGS step
   16    -455.2136805735      7.38e-06   Normal BFGS step
   17    -455.2136805738      1.76e-06   Normal BFGS step
   18    -455.2136805738      7.03e-07  Convergence criterion met
 ---------------------------------------
 SCF time:   CPU 883.17s  wall 61.00s 
<S^2> =          0.757923274
(3)  G-ENP(liq) elect-nuc-pol free energy of system     -455.213680574 a.u.
(4)  G-CDS(liq) cavity-dispersion-solvent structure 
     free energy                                                4.2539 kcal/mol
(6)  G-S(liq) free energy of system                     -455.206901526 a.u.
 SCF   energy in the final basis set =     -455.2069015260
 Total energy in the final basis set =     -455.2069015260
 
 --------------------------------------------------------------
 
                    Orbital Energies (a.u.)
 --------------------------------------------------------------
 
 Alpha MOs
 -- Occupied --
-19.4324 -19.3716 -19.3658 -19.3575 -19.3169 -10.5196 -10.4902  -1.2797
 -1.2213  -1.1806  -1.1474  -1.0582  -0.8640  -0.7486  -0.7151  -0.6867
 -0.6430  -0.6187  -0.5925  -0.5759  -0.5567  -0.5077  -0.4764  -0.4668
 -0.4409  -0.4325  -0.4078  -0.3989  -0.3441
 -- Virtual --
  0.0262   0.0362   0.0421   0.0524   0.0656   0.0822   0.0886   0.1018
  0.1189   0.1214   0.1395   0.1428   0.1460   0.1638   0.1841   0.2147
  0.2240   0.2311   0.2376   0.2465   0.2630   0.2657   0.2742   0.2880
  0.2979   0.3083   0.3175   0.3208   0.3255   0.3351   0.3428   0.3511
  0.3569   0.3730   0.3820   0.3876   0.3968   0.3994   0.4163   0.4266
  0.4451   0.4669   0.4964   0.5161   0.5447   0.5630   0.5921   0.5980
  0.6175   0.6396   0.6600   0.6787   0.7003   0.7181   0.7521   0.7694
  0.7941   0.8288   0.8399   0.8472   0.8978   0.9240   0.9592   0.9692
  0.9797   1.0048   1.0451   1.0584   1.0813   1.1015   1.1310   1.1371
  1.1553   1.1606   1.1707   1.1853   1.2055   1.2096   1.2235   1.2312
  1.2399   1.2708   1.2951   1.3116   1.3322   1.3693   1.3853   1.3987
  1.4125   1.4414   1.4916   1.4931   1.5286   1.5461   1.5927   1.5950
  1.6143   1.6372   1.6799   1.6940   1.7101   1.7331   1.7659   1.8011
  1.8354   1.9063   1.9255   1.9348   1.9798   2.0400   2.0535   2.0966
  2.1183   2.1946   2.2184   2.2748   2.3012   2.3312   2.3382   2.3876
  2.4193   2.4209   2.4691   2.5279   2.5508   2.5657   2.6537   2.7270
  2.7432   2.8329   2.8708   2.8956   2.9727   3.0277   3.0568   3.1257
  3.1505   3.1597   3.2003   3.2395   3.2808   3.3111   3.3609   3.4110
  3.4454   3.5007   3.5136   3.5615   3.5942   3.6351   3.6764   3.6961
  3.7401   3.7935   3.8001   3.8067   3.8312   3.8591   3.8646   3.8776
  3.9021   3.9085   3.9412   4.0377   4.0602   4.0847   4.1230   4.1481
  4.1699   4.2214   4.2347   4.2710   4.3120   4.3988   4.4982   4.7297
  4.8254   5.0774   5.1076   5.1297   5.1471   5.1528   5.1650   5.1716
  5.1832   5.1918   5.2177   5.2325   5.2591   5.2726   5.2832   5.2885
  5.2954   5.3254   5.3332   5.3651   5.3822   5.4038   5.4423   5.4669
  5.4944   5.5110   5.5528   5.5600   5.5701   5.5899   5.6219   5.6587
  5.6728   5.7310   5.8091   5.8710   5.9303   5.9838   6.0521   6.0730
  6.0930   6.3510   6.3569   6.3909   6.6129   6.6523   6.6920   6.8992
  6.9154   6.9567   7.0004   7.0150   7.0453   7.0595   7.0864   7.0914
  7.1280   7.1601   7.2202   7.2470   7.2703   7.2838   7.3444   7.3764
  7.4579   7.5135   7.5598   7.5948   7.6109   7.6558   7.7118   7.7789
  7.8109   7.8505   7.8676   7.9983  24.6545  25.0721  50.4989  50.5343
 50.5558  50.5803  50.7381
 
 Beta MOs
 -- Occupied --
-19.4326 -19.3703 -19.3651 -19.3574 -19.2995 -10.5197 -10.4829  -1.2791
 -1.2177  -1.1794  -1.1445  -1.0164  -0.8570  -0.7460  -0.7074  -0.6803
 -0.6391  -0.6035  -0.5913  -0.5661  -0.5545  -0.4756  -0.4696  -0.4638
 -0.4327  -0.4251  -0.3850  -0.3670
 -- Virtual --
 -0.0395   0.0278   0.0364   0.0428   0.0527   0.0676   0.0825   0.0890
  0.1020   0.1196   0.1217   0.1407   0.1428   0.1455   0.1658   0.1846
  0.2156   0.2273   0.2331   0.2385   0.2487   0.2648   0.2672   0.2783
  0.2895   0.2983   0.3108   0.3195   0.3240   0.3260   0.3359   0.3466
  0.3524   0.3583   0.3745   0.3858   0.3923   0.4008   0.4037   0.4185
  0.4284   0.4468   0.4690   0.4986   0.5176   0.5463   0.5671   0.5943
  0.6008   0.6199   0.6426   0.6606   0.6810   0.7064   0.7212   0.7555
  0.7707   0.7978   0.8306   0.8423   0.8522   0.8997   0.9255   0.9608
  0.9747   0.9808   1.0065   1.0468   1.0643   1.0857   1.1043   1.1331
  1.1426   1.1569   1.1624   1.1726   1.1885   1.2107   1.2127   1.2343
  1.2353   1.2455   1.2800   1.2976   1.3176   1.3363   1.3727   1.3936
  1.4026   1.4150   1.4439   1.4927   1.4996   1.5311   1.5511   1.5961
  1.5978   1.6190   1.6398   1.6867   1.7059   1.7205   1.7362   1.7763
  1.8106   1.8365   1.9102   1.9310   1.9380   1.9853   2.0481   2.0591
  2.1041   2.1245   2.1967   2.2242   2.2768   2.3064   2.3368   2.3424
  2.3908   2.4242   2.4261   2.4781   2.5312   2.5531   2.5735   2.6595
  2.7301   2.7464   2.8344   2.8746   2.9010   2.9767   3.0331   3.0571
  3.1332   3.1544   3.1793   3.2024   3.2448   3.2846   3.3166   3.3676
  3.4161   3.4558   3.5045   3.5255   3.5700   3.5963   3.6407   3.6934
  3.7120   3.7477   3.8002   3.8024   3.8123   3.8393   3.8615   3.8684
  3.8826   3.9112   3.9162   3.9451   4.0364   4.0562   4.0873   4.1238
  4.1513   4.1766   4.2269   4.2363   4.2774   4.3155   4.4086   4.5012
  4.7365   4.8373   5.0808   5.1168   5.1465   5.1611   5.1727   5.1786
  5.1946   5.1949   5.2026   5.2271   5.2540   5.2630   5.2832   5.2930
  5.2981   5.3105   5.3305   5.3571   5.3906   5.3944   5.4302   5.4495
  5.4761   5.4996   5.5171   5.5552   5.5685   5.5779   5.5931   5.6253
  5.6615   5.6812   5.7481   5.8145   5.8740   5.9365   5.9893   6.0573
  6.0865   6.0974   6.3553   6.3588   6.3967   6.6176   6.6539   6.6975
  6.9170   6.9544   6.9643   7.0132   7.0194   7.0583   7.0789   7.0889
  7.1233   7.1484   7.1675   7.2282   7.2559   7.2746   7.2884   7.3471
  7.3795   7.4815   7.5193   7.5960   7.6056   7.6184   7.6720   7.7338
  7.7806   7.8142   7.8548   7.8764   8.0021  24.6607  25.0725  50.5062
 50.5371  50.5569  50.5826  50.7385
 --------------------------------------------------------------
 
          Ground-State Mulliken Net Atomic Charges

     Atom                 Charge (a.u.)    Spin (a.u.)
  --------------------------------------------------------
      1 O                    -0.362216       0.033975
      2 C                    -0.103616       0.348327
      3 O                    -0.380354       0.003590
      4 C                     0.389864      -0.020069
      5 O                    -0.235222       0.006884
      6 O                    -0.449577       0.006974
      7 H                     0.361008      -0.001782
      8 H                     0.359489       0.017655
      9 H                     0.451994      -0.001347
     10 H                     0.298121      -0.020531
     11 O                    -0.698264       0.624324
     12 H                     0.368771       0.002000
  --------------------------------------------------------
  Sum of atomic charges =     0.000000
  Sum of spin   charges =     1.000000

 -----------------------------------------------------------------
                    Cartesian Multipole Moments
 -----------------------------------------------------------------
    Charge (ESU x 10^10)
                 0.0000
    Dipole Moment (Debye)
         X       1.7974      Y      -1.4817      Z      -1.9597
       Tot       3.0440
    Quadrupole Moments (Debye-Ang)
        XX     -18.5259     XY      -5.3420     YY     -48.3050
        XZ      -4.4915     YZ      -6.0567     ZZ     -55.4214
    Octopole Moments (Debye-Ang^2)
       XXX     -13.3949    XXY     -14.6669    XYY     -51.0235
       YYY     -61.6636    XXZ     -25.5151    XYZ     -15.0472
       YYZ     -32.2812    XZZ     -36.0109    YZZ     -26.6444
       ZZZ     -88.9287
    Hexadecapole Moments (Debye-Ang^3)
      XXXX    -217.0945   XXXY     -52.3594   XXYY    -130.4012
      XYYY     -80.2115   YYYY    -313.0757   XXXZ     -51.5448
      XXYZ     -33.7709   XYYZ     -41.8214   YYYZ    -104.6763
      XXZZ    -147.2933   XYZZ     -38.6925   YYZZ    -130.6596
      XZZZ     -67.4346   YZZZ    -102.6095   ZZZZ    -356.8007
 -----------------------------------------------------------------
 Calculating analytic gradient of the SCF energy
 Gradient of CDS energy
            1           2           3           4           5           6
    1   0.0018404  -0.0035240   0.0014667   0.0024780  -0.0023908   0.0000639
    2  -0.0014777  -0.0007484   0.0022808  -0.0006479  -0.0007756   0.0010709
    3   0.0022896  -0.0004340  -0.0015628  -0.0008421  -0.0006563   0.0009834
            7           8           9          10          11          12
    1  -0.0004006  -0.0003702   0.0004324   0.0001857  -0.0001444   0.0003630
    2   0.0002944  -0.0003410  -0.0000056   0.0001865   0.0000804   0.0000830
    3  -0.0001225   0.0000513  -0.0000559   0.0001247   0.0000122   0.0002124
 Gradient of SCF Energy
            1           2           3           4           5           6
    1   0.0101517   0.0226006   0.0015561  -0.0036047  -0.1087615  -0.0063829
    2  -0.0144392  -0.0213677   0.0067837   0.0379040   0.0832810  -0.0229981
    3  -0.0264844  -0.0201448   0.0238932   0.0480515   0.0951965  -0.0253075
            7           8           9          10          11          12
    1  -0.0264392  -0.0154481   0.0862053  -0.0167360  -0.0145028   0.0713615
    2   0.0181952  -0.0182221  -0.0364913   0.0283401  -0.0285017  -0.0324840
    3   0.0197825  -0.0214726  -0.0518100   0.0173210  -0.0375416  -0.0214839
 Max gradient component =       1.088E-01
 RMS gradient           =       4.087E-02
 Computing fast CPCM-SWIG gradient
 Updating gradient with PCM contributions...
 -- total gradient after adding PCM contribution --
---------------------------------------------------
  Atom         X              Y              Z     
---------------------------------------------------
   1      -0.000568      -0.009104      -0.015300
   2       0.017962      -0.021067      -0.021336
   3      -0.002877       0.002986       0.011879
   4      -0.004050       0.035623       0.044033
   5      -0.083093       0.073408       0.084020
   6      -0.001245      -0.017491      -0.017477
   7      -0.015411       0.011401       0.012203
   8      -0.009664      -0.012399      -0.014117
   9       0.062320      -0.028658      -0.040864
  10      -0.014650       0.029889       0.020399
  11      -0.010315      -0.035858      -0.043216
  12       0.061590      -0.028732      -0.020224
---------------------------------------------------
 Number of fixed atoms: 0
 Gradient time:  CPU 105.88 s  wall 9.16 s
 ----------------------------------------------------------------
             Standard Nuclear Orientation (Angstroms)
    I     Atom           X                Y                Z
 ----------------------------------------------------------------
    1      O      -0.8820247000     1.0700563000    -0.2833168000
    2      C      -0.0643048000     0.4858447000     0.6971505000
    3      O      -0.7508723000    -0.5472826000     1.3581975000
    4      C       1.1876969000    -0.0532654000     0.0533649000
    5      O       2.4070601000     0.4068181000     0.4067364000
    6      O       1.1033302000    -0.9184384000    -0.8040392000
    7      H      -1.5933885000     1.5585038000     0.2055143000
    8      H      -1.1573745000    -1.1261802000     0.6609745000
    9      H       3.2246410000    -0.0566171000    -0.1882382000
   10      H       0.3218659000     1.4369544000     1.5673464000
   11      O       1.5706511000     1.7733809000     1.7923166000
   12      H       2.4938360000     1.1525155000     1.3311010000
 ----------------------------------------------------------------
 Nuclear Repulsion Energy =         334.59998260 hartrees
 There are       29 alpha and       28 beta electrons
 Discretize the solute cavity surface with Lebedev spheres
	Using 110 Lebedev grid points for each H atom
	Using 194 Lebedev grid points for other atoms
	Atomic van der Waals radii will be scaled by 1.20
 Remove points where switching function is < 1.0e-08
 Keep 997 surface tesserae and discard 911 interior tesserae
 Molecular Surface Area = 116.816 Angst**2

                       Distance Matrix (Angstroms)
             O (  1)   C (  2)   O (  3)   C (  4)   O (  5)   O (  6)
   C (  2)  1.404025
   O (  3)  2.308150  1.405600
   C (  4)  2.378856  1.507517  2.388450
   O (  5)  3.425513  2.489624  3.433384  1.350331
   O (  6)  2.857778  2.364097  2.872471  1.220977  2.218557
   H (  7)  0.991754  1.931425  2.544179  3.217978  4.167788  3.798254
   H (  8)  2.406441  1.948008  0.993220  2.649471  3.888433  2.701890
   H (  9)  4.259476  3.448963  4.293824  2.051225  1.112297  2.371056
   H ( 10)  2.238062  1.345726  2.265327  2.294027  2.599275  3.432496
   O ( 11)  3.289155  2.351642  3.311104  2.550930  2.118232  3.768998
   H ( 12)  3.742937  2.718534  3.663083  2.189182  1.190817  3.283471
             H (  7)   H (  8)   H (  9)   H ( 10)   O ( 11)
   H (  8)  2.757731
   H (  9)  5.096770  4.589901
   H ( 10)  2.353202  3.095048  3.706607
   O ( 11)  3.546161  4.138782  3.163412  1.312730
   H ( 12)  4.258776  4.355785  2.074721  2.203218  1.204352
 
 Requested basis set is 6-311++G(2df,2p)
 There are 86 shells and 288 basis functions
 A cutoff of  1.0D-11 yielded   3447 shell pairs
 There are     38979 function pairs (     48959 Cartesian)
 Smallest overlap matrix eigenvalue = 3.99E-05
 Guess MOs from SCF MO coefficient file

 -----------------------------------------------------------------------
  General SCF calculation program by
  Eric Jon Sundstrom, Paul Horn, Yuezhi Mao, Dmitri Zuev, Alec White,
  David Stuck, Shaama M.S., Shane Yost, Joonho Lee, David Small,
  Daniel Levine, Susi Lehtola, Hugh Burton, Evgeny Epifanovsky,
  Bang C. Huynh
 -----------------------------------------------------------------------
 Exchange:     0.1500 Hartree-Fock + 1.0000 wB97M-V + LR-HF
 Correlation:  1.0000 wB97M-V
 Using SG-2 standard quadrature grid
 Nonlocal Correlation:  VV10 with C = 0.0100 and b = 6.00 and scale = 1.00000
 Grid used for NLC:  SG-1 standard quadrature
 
 Citation of the SMD model:
 Marenich, A.V.; Cramer, C.J.; Truhlar, D.G.
 J. Phys. Chem. B 2009, 113, 6378-6396.
 iSolventCode=           1
 Solvent: water                                                           
 
 vradii
            1           2           3           4           5           6
    1   1.5200000   1.8500000   1.5200000   1.8500000   1.5200000   1.5200000
            7           8           9          10          11          12
    1   1.2000000   1.2000000   1.2000000   1.2000000   1.5200000   1.2000000
 -------------------------------------------------------
 OpenMP BLAS3 based DFT computing Module                
 Release: version 1.0, May 2013, Q-Chem Inc. Pittsburgh 
 -------------------------------------------------------
 A unrestricted SCF calculation will be
 performed using Roothaan-Hall, DIIS, GDM
 SCF converges when RMS gradient is below 1.0e-06
 ---------------------------------------
  Cycle       Energy         DIIS error
 ---------------------------------------
    1    -455.1565129701      3.36e-04  Roothaan Step
 ---------------------------------------
  Cycle       Energy         DIIS error
 ---------------------------------------
    1    -455.2041250521      3.89e-04  
    2    -455.2089975802      4.04e-04  Done DIIS. Switching to GDM
 ---------------------------------------
  Cycle       Energy        RMS Gradient
 ---------------------------------------
    1    -455.2089975802      1.49e-02   Normal BFGS step
    2    -455.2063851123      2.43e-02  Line search: overstep
    3    -455.2134173346      3.24e-03   Normal BFGS step
    4    -455.2136406785      2.41e-03   Normal BFGS step
    5    -455.2136778800      1.06e-03   Normal BFGS step
    6    -455.2136906557      1.49e-03   Normal BFGS step
    7    -455.2136945778      9.15e-04   Normal BFGS step
    8    -455.2136976451      5.48e-04   Normal BFGS step
    9    -455.2136988606      2.48e-04   Normal BFGS step
   10    -455.2136991189      1.14e-04   Normal BFGS step
   11    -455.2136991983      5.15e-05   Normal BFGS step
   12    -455.2136992231      3.31e-05   Normal BFGS step
   13    -455.2136992282      2.86e-05   Normal BFGS step
   14    -455.2136992308      2.29e-05   Normal BFGS step
   15    -455.2136992321      1.46e-05   Normal BFGS step
   16    -455.2136992328      7.29e-06   Normal BFGS step
   17    -455.2136992331      1.79e-06   Normal BFGS step
   18    -455.2136992332      7.88e-07  Convergence criterion met
 ---------------------------------------
 SCF time:   CPU 905.04s  wall 64.00s 
<S^2> =          0.757925284
(3)  G-ENP(liq) elect-nuc-pol free energy of system     -455.213699233 a.u.
(4)  G-CDS(liq) cavity-dispersion-solvent structure 
     free energy                                                4.2543 kcal/mol
(6)  G-S(liq) free energy of system                     -455.206919497 a.u.
 SCF   energy in the final basis set =     -455.2069194973
 Total energy in the final basis set =     -455.2069194973
 
 --------------------------------------------------------------
 
                    Orbital Energies (a.u.)
 --------------------------------------------------------------
 
 Alpha MOs
 -- Occupied --
-19.4324 -19.3717 -19.3659 -19.3575 -19.3168 -10.5196 -10.4902  -1.2797
 -1.2213  -1.1806  -1.1474  -1.0582  -0.8640  -0.7486  -0.7151  -0.6868
 -0.6430  -0.6187  -0.5925  -0.5759  -0.5568  -0.5077  -0.4764  -0.4668
 -0.4409  -0.4326  -0.4078  -0.3988  -0.3440
 -- Virtual --
  0.0262   0.0362   0.0421   0.0524   0.0656   0.0822   0.0886   0.1018
  0.1189   0.1214   0.1395   0.1428   0.1460   0.1638   0.1841   0.2147
  0.2240   0.2311   0.2376   0.2465   0.2630   0.2657   0.2742   0.2880
  0.2979   0.3082   0.3176   0.3208   0.3255   0.3351   0.3428   0.3512
  0.3569   0.3731   0.3820   0.3876   0.3968   0.3994   0.4163   0.4266
  0.4451   0.4669   0.4963   0.5161   0.5447   0.5629   0.5921   0.5980
  0.6175   0.6396   0.6601   0.6787   0.7003   0.7181   0.7520   0.7694
  0.7941   0.8287   0.8398   0.8472   0.8979   0.9240   0.9592   0.9692
  0.9797   1.0049   1.0450   1.0585   1.0814   1.1015   1.1310   1.1371
  1.1552   1.1606   1.1707   1.1853   1.2055   1.2097   1.2236   1.2312
  1.2398   1.2708   1.2951   1.3116   1.3322   1.3693   1.3853   1.3987
  1.4125   1.4414   1.4915   1.4931   1.5286   1.5462   1.5927   1.5949
  1.6143   1.6373   1.6798   1.6940   1.7101   1.7333   1.7661   1.8011
  1.8353   1.9062   1.9255   1.9347   1.9798   2.0400   2.0535   2.0966
  2.1181   2.1944   2.2186   2.2747   2.3013   2.3312   2.3382   2.3877
  2.4194   2.4208   2.4692   2.5280   2.5508   2.5657   2.6537   2.7271
  2.7432   2.8328   2.8704   2.8958   2.9727   3.0277   3.0568   3.1256
  3.1504   3.1596   3.2003   3.2396   3.2808   3.3112   3.3610   3.4110
  3.4454   3.5007   3.5136   3.5615   3.5942   3.6351   3.6763   3.6959
  3.7402   3.7935   3.8000   3.8066   3.8312   3.8592   3.8646   3.8776
  3.9022   3.9086   3.9412   4.0376   4.0602   4.0847   4.1230   4.1481
  4.1697   4.2214   4.2348   4.2709   4.3119   4.3988   4.4982   4.7297
  4.8254   5.0774   5.1077   5.1298   5.1471   5.1528   5.1650   5.1716
  5.1833   5.1918   5.2177   5.2324   5.2590   5.2726   5.2832   5.2885
  5.2954   5.3254   5.3333   5.3651   5.3822   5.4039   5.4425   5.4669
  5.4942   5.5110   5.5525   5.5599   5.5700   5.5898   5.6219   5.6586
  5.6728   5.7309   5.8089   5.8707   5.9304   5.9840   6.0522   6.0730
  6.0938   6.3513   6.3570   6.3909   6.6129   6.6523   6.6922   6.8993
  6.9154   6.9567   7.0005   7.0149   7.0453   7.0593   7.0864   7.0914
  7.1276   7.1594   7.2202   7.2470   7.2702   7.2837   7.3442   7.3765
  7.4580   7.5135   7.5599   7.5949   7.6109   7.6559   7.7118   7.7789
  7.8109   7.8506   7.8676   7.9983  24.6548  25.0721  50.4989  50.5343
 50.5557  50.5804  50.7381
 
 Beta MOs
 -- Occupied --
-19.4326 -19.3703 -19.3652 -19.3574 -19.2994 -10.5197 -10.4829  -1.2791
 -1.2177  -1.1794  -1.1446  -1.0163  -0.8570  -0.7460  -0.7074  -0.6803
 -0.6391  -0.6034  -0.5913  -0.5661  -0.5546  -0.4756  -0.4696  -0.4638
 -0.4327  -0.4251  -0.3850  -0.3670
 -- Virtual --
 -0.0395   0.0278   0.0364   0.0428   0.0527   0.0675   0.0825   0.0890
  0.1020   0.1196   0.1217   0.1406   0.1428   0.1454   0.1657   0.1846
  0.2156   0.2273   0.2331   0.2384   0.2487   0.2649   0.2672   0.2782
  0.2895   0.2983   0.3108   0.3195   0.3240   0.3260   0.3359   0.3466
  0.3524   0.3583   0.3745   0.3858   0.3922   0.4008   0.4037   0.4185
  0.4284   0.4468   0.4690   0.4985   0.5176   0.5463   0.5670   0.5943
  0.6008   0.6200   0.6426   0.6607   0.6810   0.7064   0.7212   0.7555
  0.7707   0.7978   0.8305   0.8423   0.8522   0.8997   0.9255   0.9607
  0.9747   0.9808   1.0066   1.0467   1.0644   1.0858   1.1043   1.1330
  1.1426   1.1568   1.1623   1.1726   1.1885   1.2108   1.2128   1.2343
  1.2354   1.2454   1.2800   1.2976   1.3177   1.3363   1.3728   1.3936
  1.4025   1.4151   1.4439   1.4925   1.4997   1.5311   1.5511   1.5961
  1.5978   1.6190   1.6398   1.6866   1.7059   1.7205   1.7365   1.7764
  1.8106   1.8363   1.9100   1.9311   1.9380   1.9853   2.0481   2.0591
  2.1041   2.1243   2.1966   2.2244   2.2767   2.3065   2.3368   2.3425
  2.3908   2.4242   2.4261   2.4783   2.5313   2.5531   2.5735   2.6595
  2.7302   2.7463   2.8343   2.8742   2.9012   2.9768   3.0332   3.0572
  3.1331   3.1544   3.1792   3.2024   3.2449   3.2846   3.3167   3.3677
  3.4161   3.4559   3.5046   3.5255   3.5701   3.5964   3.6407   3.6933
  3.7118   3.7477   3.8001   3.8024   3.8121   3.8393   3.8615   3.8684
  3.8826   3.9112   3.9163   3.9451   4.0364   4.0562   4.0873   4.1238
  4.1513   4.1763   4.2269   4.2363   4.2774   4.3153   4.4086   4.5013
  4.7365   4.8373   5.0809   5.1169   5.1465   5.1611   5.1727   5.1786
  5.1946   5.1949   5.2026   5.2271   5.2540   5.2629   5.2832   5.2930
  5.2981   5.3105   5.3305   5.3571   5.3906   5.3944   5.4303   5.4497
  5.4761   5.4994   5.5170   5.5549   5.5683   5.5779   5.5931   5.6253
  5.6614   5.6812   5.7480   5.8143   5.8737   5.9366   5.9894   6.0574
  6.0867   6.0982   6.3555   6.3589   6.3968   6.6176   6.6539   6.6976
  6.9170   6.9544   6.9642   7.0132   7.0194   7.0582   7.0789   7.0889
  7.1229   7.1483   7.1668   7.2282   7.2559   7.2746   7.2884   7.3469
  7.3796   7.4816   7.5193   7.5960   7.6057   7.6185   7.6720   7.7339
  7.7806   7.8142   7.8549   7.8764   8.0021  24.6610  25.0725  50.5063
 50.5371  50.5568  50.5827  50.7385
 --------------------------------------------------------------
 
          Ground-State Mulliken Net Atomic Charges

     Atom                 Charge (a.u.)    Spin (a.u.)
  --------------------------------------------------------
      1 O                    -0.362059       0.034069
      2 C                    -0.103480       0.348517
      3 O                    -0.380271       0.003582
      4 C                     0.389688      -0.020091
      5 O                    -0.235166       0.006884
      6 O                    -0.449600       0.006981
      7 H                     0.361077      -0.001786
      8 H                     0.359482       0.017675
      9 H                     0.451965      -0.001352
     10 H                     0.298140      -0.020508
     11 O                    -0.698531       0.624017
     12 H                     0.368755       0.002013
  --------------------------------------------------------
  Sum of atomic charges =     0.000000
  Sum of spin   charges =     1.000000

 -----------------------------------------------------------------
                    Cartesian Multipole Moments
 -----------------------------------------------------------------
    Charge (ESU x 10^10)
                 0.0000
    Dipole Moment (Debye)
         X       1.7909      Y      -1.4859      Z      -1.9618
       Tot       3.0436
    Quadrupole Moments (Debye-Ang)
        XX     -18.5246     XY      -5.3472     YY     -48.3144
        XZ      -4.4956     YZ      -6.0625     ZZ     -55.4257
    Octopole Moments (Debye-Ang^2)
       XXX     -13.4358    XXY     -14.6773    XYY     -51.0388
       YYY     -61.7044    XXZ     -25.5248    XYZ     -15.0553
       YYZ     -32.2909    XZZ     -36.0297    YZZ     -26.6635
       ZZZ     -88.9421
    Hexadecapole Moments (Debye-Ang^3)
      XXXX    -217.0559   XXXY     -52.3861   XXYY    -130.4201
      XYYY     -80.2344   YYYY    -313.2013   XXXZ     -51.5583
      XXYZ     -33.7887   XYYZ     -41.8393   YYYZ    -104.7016
      XXZZ    -147.3039   XYZZ     -38.7147   YYZZ    -130.6965
      XZZZ     -67.4594   YZZZ    -102.6421   ZZZZ    -356.8373
 -----------------------------------------------------------------
 Calculating analytic gradient of the SCF energy
 Gradient of CDS energy
            1           2           3           4           5           6
    1   0.0018602  -0.0035439   0.0014669   0.0024779  -0.0023908   0.0000640
    2  -0.0014948  -0.0007313   0.0022808  -0.0006479  -0.0007756   0.0010709
    3   0.0023160  -0.0004603  -0.0015627  -0.0008420  -0.0006563   0.0009834
            7           8           9          10          11          12
    1  -0.0004006  -0.0003703   0.0004324   0.0001856  -0.0001444   0.0003630
    2   0.0002941  -0.0003410  -0.0000056   0.0001869   0.0000804   0.0000830
    3  -0.0001224   0.0000513  -0.0000559   0.0001243   0.0000122   0.0002124
 Gradient of SCF Energy
            1           2           3           4           5           6
    1   0.0104883   0.0224230   0.0016234  -0.0036300  -0.1087636  -0.0063763
    2  -0.0144092  -0.0213886   0.0067219   0.0379117   0.0832829  -0.0229974
    3  -0.0265572  -0.0201986   0.0240096   0.0480197   0.0951999  -0.0253066
            7           8           9          10          11          12
    1  -0.0266056  -0.0154532   0.0862007  -0.0167921  -0.0144791   0.0713644
    2   0.0182341  -0.0182157  -0.0364909   0.0283344  -0.0284920  -0.0324914
    3   0.0198753  -0.0214855  -0.0518067   0.0172750  -0.0375332  -0.0214916
 Max gradient component =       1.088E-01
 RMS gradient           =       4.088E-02
 Computing fast CPCM-SWIG gradient
 Updating gradient with PCM contributions...
 -- total gradient after adding PCM contribution --
---------------------------------------------------
  Atom         X              Y              Z     
---------------------------------------------------
   1      -0.000257      -0.009092      -0.015369
   2       0.017779      -0.021085      -0.021393
   3      -0.002821       0.002919       0.011980
   4      -0.004069       0.035629       0.044002
   5      -0.083100       0.073414       0.084028
   6      -0.001243      -0.017491      -0.017475
   7      -0.015555       0.011453       0.012294
   8      -0.009657      -0.012387      -0.014118
   9       0.062321      -0.028657      -0.040863
  10      -0.014706       0.029889       0.020354
  11      -0.010295      -0.035857      -0.043212
  12       0.061602      -0.028736      -0.020230
---------------------------------------------------
 Number of fixed atoms: 0
 Gradient time:  CPU 105.09 s  wall 9.98 s
 ----------------------------------------------------------------
             Standard Nuclear Orientation (Angstroms)
    I     Atom           X                Y                Z
 ----------------------------------------------------------------
    1      O      -0.8820247000     1.0680563000    -0.2833168000
    2      C      -0.0643048000     0.4858447000     0.6971505000
    3      O      -0.7508723000    -0.5472826000     1.3581975000
    4      C       1.1876969000    -0.0532654000     0.0533649000
    5      O       2.4070601000     0.4068181000     0.4067364000
    6      O       1.1033302000    -0.9184384000    -0.8040392000
    7      H      -1.5933885000     1.5585038000     0.2055143000
    8      H      -1.1573745000    -1.1261802000     0.6609745000
    9      H       3.2246410000    -0.0566171000    -0.1882382000
   10      H       0.3218659000     1.4369544000     1.5673464000
   11      O       1.5706511000     1.7733809000     1.7923166000
   12      H       2.4938360000     1.1525155000     1.3311010000
 ----------------------------------------------------------------
 Nuclear Repulsion Energy =         334.62631945 hartrees
 There are       29 alpha and       28 beta electrons
 Discretize the solute cavity surface with Lebedev spheres
	Using 110 Lebedev grid points for each H atom
	Using 194 Lebedev grid points for other atoms
	Atomic van der Waals radii will be scaled by 1.20
 Remove points where switching function is < 1.0e-08
 Keep 996 surface tesserae and discard 912 interior tesserae
 Molecular Surface Area = 116.813 Angst**2

                       Distance Matrix (Angstroms)
             O (  1)   C (  2)   O (  3)   C (  4)   O (  5)   O (  6)
   C (  2)  1.403194
   O (  3)  2.306749  1.405600
   C (  4)  2.377912  1.507517  2.388450
   O (  5)  3.425126  2.489624  3.433384  1.350331
   O (  6)  2.856387  2.364097  2.872471  1.220977  2.218557
   H (  7)  0.992740  1.931425  2.544179  3.217978  4.167788  3.798254
   H (  8)  2.404616  1.948008  0.993220  2.649471  3.888433  2.701890
   H (  9)  4.258947  3.448963  4.293824  2.051225  1.112297  2.371056
   H ( 10)  2.238391  1.345726  2.265327  2.294027  2.599275  3.432496
   O ( 11)  3.289583  2.351642  3.311104  2.550930  2.118232  3.768998
   H ( 12)  3.742982  2.718534  3.663083  2.189182  1.190817  3.283471
             H (  7)   H (  8)   H (  9)   H ( 10)   O ( 11)
   H (  8)  2.757731
   H (  9)  5.096770  4.589901
   H ( 10)  2.353202  3.095048  3.706607
   O ( 11)  3.546161  4.138782  3.163412  1.312730
   H ( 12)  4.258776  4.355785  2.074721  2.203218  1.204352
 
 Requested basis set is 6-311++G(2df,2p)
 There are 86 shells and 288 basis functions
 A cutoff of  1.0D-11 yielded   3447 shell pairs
 There are     38979 function pairs (     48959 Cartesian)
 Smallest overlap matrix eigenvalue = 4.00E-05
 Guess MOs from SCF MO coefficient file

 -----------------------------------------------------------------------
  General SCF calculation program by
  Eric Jon Sundstrom, Paul Horn, Yuezhi Mao, Dmitri Zuev, Alec White,
  David Stuck, Shaama M.S., Shane Yost, Joonho Lee, David Small,
  Daniel Levine, Susi Lehtola, Hugh Burton, Evgeny Epifanovsky,
  Bang C. Huynh
 -----------------------------------------------------------------------
 Exchange:     0.1500 Hartree-Fock + 1.0000 wB97M-V + LR-HF
 Correlation:  1.0000 wB97M-V
 Using SG-2 standard quadrature grid
 Nonlocal Correlation:  VV10 with C = 0.0100 and b = 6.00 and scale = 1.00000
 Grid used for NLC:  SG-1 standard quadrature
 
 Citation of the SMD model:
 Marenich, A.V.; Cramer, C.J.; Truhlar, D.G.
 J. Phys. Chem. B 2009, 113, 6378-6396.
 iSolventCode=           1
 Solvent: water                                                           
 
 vradii
            1           2           3           4           5           6
    1   1.5200000   1.8500000   1.5200000   1.8500000   1.5200000   1.5200000
            7           8           9          10          11          12
    1   1.2000000   1.2000000   1.2000000   1.2000000   1.5200000   1.2000000
 -------------------------------------------------------
 OpenMP BLAS3 based DFT computing Module                
 Release: version 1.0, May 2013, Q-Chem Inc. Pittsburgh 
 -------------------------------------------------------
 A unrestricted SCF calculation will be
 performed using Roothaan-Hall, DIIS, GDM
 SCF converges when RMS gradient is below 1.0e-06
 ---------------------------------------
  Cycle       Energy         DIIS error
 ---------------------------------------
    1    -455.1564676108      3.36e-04  Roothaan Step
 ---------------------------------------
  Cycle       Energy         DIIS error
 ---------------------------------------
    1    -455.2040905954      3.89e-04  
    2    -455.2089596526      4.04e-04  Done DIIS. Switching to GDM
 ---------------------------------------
  Cycle       Energy        RMS Gradient
 ---------------------------------------
    1    -455.2089596526      1.49e-02   Normal BFGS step
    2    -455.2063422191      2.43e-02  Line search: overstep
    3    -455.2133876750      3.21e-03   Normal BFGS step
    4    -455.2136107577      2.38e-03   Normal BFGS step
    5    -455.2136477835      1.04e-03   Normal BFGS step
[...]
  0.2940   0.3078   0.3122   0.3221   0.3273   0.3309   0.3335   0.3407
  0.3451   0.3482   0.3571   0.3766   0.3897   0.3948   0.4111   0.4196
  0.4322   0.4493   0.4663   0.4870   0.5509   0.5696   0.5922   0.6129
  0.6214   0.6315   0.6425   0.6611   0.6737   0.7080   0.7119   0.7421
  0.7767   0.8065   0.8320   0.8482   0.8608   0.8951   0.8955   0.9232
  0.9501   0.9658   0.9931   1.0143   1.0440   1.0682   1.0954   1.1124
  1.1201   1.1314   1.1347   1.1517   1.1542   1.1789   1.1963   1.2041
  1.2235   1.2379   1.2514   1.2807   1.3009   1.3396   1.3587   1.3927
  1.4030   1.4152   1.4407   1.4766   1.4914   1.5256   1.5411   1.5882
  1.6088   1.6152   1.6449   1.6560   1.6770   1.7232   1.7384   1.7895
  1.8144   1.8427   1.8561   1.8852   1.8963   1.9451   1.9863   2.0476
  2.0823   2.1561   2.1664   2.2541   2.2738   2.3009   2.3478   2.3720
  2.3835   2.4170   2.4493   2.4611   2.4961   2.5484   2.5621   2.7069
  2.7332   2.7608   2.7922   2.8141   2.8676   2.8931   2.9146   3.0252
  3.1234   3.1681   3.2054   3.2265   3.2807   3.3556   3.3680   3.3947
  3.4067   3.4830   3.4986   3.5341   3.5829   3.6217   3.6611   3.6919
  3.7358   3.7448   3.7720   3.7909   3.8168   3.8600   3.8833   3.8967
  3.9256   3.9392   3.9782   4.0126   4.0754   4.1343   4.1831   4.2129
  4.2242   4.2419   4.2819   4.3095   4.3788   4.3828   4.4307   4.5101
  4.7614   5.0844   5.1207   5.1271   5.1305   5.1384   5.1751   5.1828
  5.1937   5.2086   5.2255   5.2371   5.2424   5.2624   5.2693   5.2780
  5.2889   5.3205   5.3431   5.3447   5.3562   5.4149   5.4229   5.4534
  5.4971   5.5168   5.5527   5.5903   5.6011   5.6158   5.6368   5.6546
  5.6781   5.6977   5.7224   5.7716   5.8937   5.9475   6.0034   6.1027
  6.1571   6.2084   6.4789   6.5005   6.7132   6.7882   6.9047   6.9679
  7.0032   7.0061   7.0345   7.0583   7.0654   7.0921   7.1305   7.1881
  7.2066   7.2348   7.2488   7.2623   7.2881   7.3063   7.3533   7.3619
  7.3801   7.4416   7.4485   7.5073   7.6042   7.6461   7.6651   7.7320
  7.7624   7.7718   7.8108   7.8888   7.8945  24.7892  25.1315  50.4675
 50.5686  50.5851  50.6190  50.7336
 --------------------------------------------------------------
 
          Ground-State Mulliken Net Atomic Charges

     Atom                 Charge (a.u.)    Spin (a.u.)
  --------------------------------------------------------
      1 O                    -0.360199       0.026857
      2 C                    -0.224904       0.167620
      3 O                    -0.387674       0.033533
      4 C                     0.410702      -0.003305
      5 O                    -0.281742       0.000568
      6 O                    -0.461977       0.009198
      7 H                     0.354101       0.000282
      8 H                     0.315782       0.001922
      9 H                     0.365299       0.000052
     10 H                     0.384182      -0.027485
     11 O                    -0.444366       0.802762
     12 H                     0.330797      -0.012004
  --------------------------------------------------------
  Sum of atomic charges =    -0.000000
  Sum of spin   charges =     1.000000

 -----------------------------------------------------------------
                    Cartesian Multipole Moments
 -----------------------------------------------------------------
    Charge (ESU x 10^10)
                -0.0000
    Dipole Moment (Debye)
         X       2.9198      Y       1.2300      Z      -1.4737
       Tot       3.4943
    Quadrupole Moments (Debye-Ang)
        XX     -29.8897     XY       0.9498     YY     -41.9547
        XZ      -2.1380     YZ      -0.1508     ZZ     -49.2449
    Octopole Moments (Debye-Ang^2)
       XXX     -30.6888    XXY       0.8440    XYY     -38.6604
       YYY     -24.7007    XXZ     -26.1216    XYZ       3.4687
       YYZ     -17.9317    XZZ     -22.3278    YZZ     -24.9258
       ZZZ     -91.0497
    Hexadecapole Moments (Debye-Ang^3)
      XXXX    -277.4119   XXXY      -3.5358   XXYY    -107.0748
      XYYY     -11.2787   YYYY    -328.1505   XXXZ     -37.0226
      XXYZ      -0.1700   XYYZ      -5.0703   YYYZ     -75.9818
      XXZZ    -109.5635   XYZZ      -7.3423   YYZZ    -133.1802
      XZZZ     -48.0256   YZZZ    -101.1963   ZZZZ    -444.3141
 -----------------------------------------------------------------
 Calculating analytic gradient of the SCF energy
 Gradient of CDS energy
            1           2           3           4           5           6
    1   0.0017073  -0.0060827   0.0040411   0.0024189  -0.0021295   0.0000063
    2  -0.0035671   0.0000786   0.0036931  -0.0001649  -0.0016397   0.0012314
    3   0.0033500  -0.0011151  -0.0018141  -0.0014747   0.0011170  -0.0000859
            7           8           9          10          11          12
    1  -0.0002635  -0.0002577   0.0003766   0.0001232  -0.0003167   0.0003766
    2   0.0004173  -0.0003105   0.0000182   0.0000130  -0.0000558   0.0002865
    3  -0.0000877   0.0001415  -0.0002005  -0.0000959   0.0001193   0.0001461
 Gradient of SCF Energy
            1           2           3           4           5           6
    1   0.0075948  -0.0026473  -0.0056116  -0.0013127  -0.0144628  -0.0000783
    2  -0.0077073  -0.0033040   0.0047324   0.0046791   0.0129793  -0.0104181
    3  -0.0091864  -0.0036628   0.0012540   0.0033440   0.0030227   0.0000134
            7           8           9          10          11          12
    1  -0.0068587   0.0019889   0.0171511   0.0043776  -0.0125130   0.0123720
    2   0.0089190  -0.0049615  -0.0083704   0.0035241  -0.0012875   0.0012149
    3   0.0069677  -0.0000009  -0.0068372   0.0017588   0.0130775  -0.0097508
 Max gradient component =       1.715E-02
 RMS gradient           =       7.540E-03
 Computing fast CPCM-SWIG gradient
 Updating gradient with PCM contributions...
 -- total gradient after adding PCM contribution --
---------------------------------------------------
  Atom         X              Y              Z     
---------------------------------------------------
   1       0.000063       0.000089       0.000059
   2      -0.000192      -0.000285       0.000181
   3      -0.000027      -0.000011      -0.000057
   4       0.000072       0.000083      -0.000149
   5       0.000134       0.000132      -0.000036
   6      -0.000018      -0.000001       0.000038
   7      -0.000036      -0.000026       0.000033
   8       0.000057      -0.000041       0.000078
   9      -0.000130      -0.000014       0.000022
  10       0.000083       0.000238      -0.000105
  11       0.000233      -0.000091      -0.000117
  12      -0.000239      -0.000073       0.000052
---------------------------------------------------
 Number of fixed atoms: 0
 Gradient time:  CPU 91.99 s  wall 7.78 s
 Geometry Optimization Parameters
   NAtoms,    NIC,     NZ,  NCons,   NDum,   NFix, NCnnct, MaxDiis
       12      76       0       0       0       0       0       0

 Cartesian Hessian Update
 Hessian updated using Powell/Murtagh-Sargent update
  Mixing factors:     0.996191 Powell                      0.003809 Murtagh-Sargent


** GEOMETRY OPTIMIZATION IN DELOCALIZED INTERNAL COORDINATES **
   Searching for a Transition State

   Optimization Cycle: 115

                       Coordinates (Angstroms)
     ATOM                X               Y               Z
      1  O        -0.4628443119    1.4062765168   -0.3338263962
      2  C         0.0001780212    0.4576397441    0.5699888494
      3  O        -0.9991184032   -0.4100108625    0.9945623619
      4  C         1.1585387697   -0.3123762542   -0.0500006829
      5  O         2.0694287861    0.4823349227   -0.5845675524
      6  O         1.2217330546   -1.5180777080   -0.0011624366
      7  H        -1.0496509914    2.0161099922    0.1307241003
      8  H        -0.6649513630   -1.3165348992    0.9062656099
      9  H         2.7994759286   -0.0533732966   -0.9357000371
     10  H         0.4330768658    0.9910550084    1.4857371922
     11  O         1.2872704652    1.6529693057    2.5904387587
     12  H         2.0679795783    1.7852775305    2.0246481329
   Point Group: c1    Number of degrees of freedom:    30


   Energy is   -455.313944124

 Hessian updated using Powell/Murtagh-Sargent update
  Mixing factors:     0.989712 Powell                      0.010288 Murtagh-Sargent

 30 Hessian modes will be used to form the next step
  Hessian Eigenvalues:
    -0.112571    0.000029    0.002985    0.008688    0.015858    0.016948
     0.021895    0.036476    0.046460    0.051576    0.068457    0.079052
     0.090896    0.123794    0.131741    0.139555    0.164473    0.181842
     0.202893    0.213991    0.240599    0.293445    0.340063    0.370100
     0.388950    0.406544    0.431135    0.437450    0.511657    0.787007
**WARNING** Magnitude of eigenvalue   2 too small.  Replaced by     0.000100

 Transition state search - taking P-RFO step
 Searching for Lamda that Maximizes Along the Lowest mode
 Value Taken    Lamda =   0.00000008
 Searching for Lamda that Minimizes Along All other modes
 Value Taken    Lamda =  -0.00000365
 Calculated Step too Large.  Step scaled by  0.465903
 Step Taken.  Stepsize is  0.060000

                             Maximum     Tolerance    Cnvgd?
         Gradient           0.000155      0.000300     YES
         Displacement       0.025821      0.001200      NO
         Energy change      0.000001      0.000001     YES


                       Distance Matrix (Angstroms)
             O (  1)   C (  2)   O (  3)   C (  4)   O (  5)   O (  6)
   C (  2)  1.389670
   O (  3)  2.313246  1.389847
   C (  4)  2.379749  1.522863  2.399193
   O (  5)  2.707203  2.369685  3.564536  1.321760
   O (  6)  3.391211  2.392043  2.674222  1.208344  2.249578
   H (  7)  0.965425  1.929747  2.575817  3.214127  3.548629  4.203220
   H (  8)  2.998729  1.924363  0.970180  2.290829  3.596575  2.103241
   H (  9)  3.624302  3.219364  4.275795  1.882610  0.971209  2.346911
   H ( 10)  2.070240  1.144783  2.062867  2.140962  2.687491  3.021357
   O ( 11)  3.416882  2.677244  3.468470  3.294097  3.473157  4.095880
   H ( 12)  3.480103  2.855601  3.909918  3.087297  2.916448  3.966383
             H (  7)   H (  8)   H (  9)   H ( 10)   O ( 11)
   H (  8)  3.443251
   H (  9)  4.498422  4.121974
   H ( 10)  2.255057  2.620386  3.543167
   O ( 11)  3.412224  3.932628  4.199051  1.545362
   H ( 12)  3.655113  4.282631  3.560812  1.895817  0.973207
 
 Final energy is   -455.313944123940     


 ******************************
 **  OPTIMIZATION CONVERGED  **
 ******************************

                       Coordinates (Angstroms)
     ATOM                X               Y               Z
      1  O        -0.4628443119    1.4062765168   -0.3338263962
      2  C         0.0001780212    0.4576397441    0.5699888494
      3  O        -0.9991184032   -0.4100108625    0.9945623619
      4  C         1.1585387697   -0.3123762542   -0.0500006829
      5  O         2.0694287861    0.4823349227   -0.5845675524
      6  O         1.2217330546   -1.5180777080   -0.0011624366
      7  H        -1.0496509914    2.0161099922    0.1307241003
      8  H        -0.6649513630   -1.3165348992    0.9062656099
      9  H         2.7994759286   -0.0533732966   -0.9357000371
     10  H         0.4330768658    0.9910550084    1.4857371922
     11  O         1.2872704652    1.6529693057    2.5904387587
     12  H         2.0679795783    1.7852775305    2.0246481329

Z-matrix Print:
$molecule
0 2
C 
O  1 1.208344
O  1 1.321760 2 125.467611
H  3 0.971209 1 109.426809 2 0.144140 0
C  1 1.522863 2 121.860783 3 -177.592381 0
H  5 1.144783 1 105.880642 2 109.179930 0
O  5 1.389670 1 109.500820 2 -133.257670 0
H  7 0.965425 5 108.709266 1 -167.176715 0
O  5 1.389847 1 110.831043 2 -8.364727 0
H  9 0.970180 5 107.930614 1 7.809868 0
O  6 1.545362 5 168.646245 1 16.959415 0
H  11 0.973207 6 94.936720 5 21.309190 0
$end

 
 --------------------------------------------------------------
 
                    Orbital Energies (a.u.)
 --------------------------------------------------------------
 
 Alpha MOs
 -- Occupied --
-19.3981 -19.3857 -19.3651 -19.3610 -19.3520 -10.5040 -10.4795  -1.2696
 -1.2203  -1.1813  -1.1533  -1.1341  -0.8654  -0.7494  -0.6878  -0.6714
 -0.6457  -0.6156  -0.5867  -0.5675  -0.5470  -0.5309  -0.5084  -0.4890
 -0.4558  -0.4527  -0.4397  -0.4233  -0.3854
 -- Virtual --
  0.0248   0.0421   0.0504   0.0576   0.0714   0.0825   0.0939   0.1027
  0.1119   0.1233   0.1414   0.1515   0.1562   0.1749   0.2081   0.2109
  0.2209   0.2264   0.2440   0.2555   0.2617   0.2673   0.2800   0.2931
  0.3061   0.3110   0.3212   0.3255   0.3298   0.3322   0.3380   0.3445
  0.3478   0.3558   0.3732   0.3837   0.3927   0.4054   0.4189   0.4242
  0.4482   0.4604   0.4862   0.5495   0.5651   0.5908   0.6096   0.6195
  0.6296   0.6394   0.6594   0.6726   0.7032   0.7104   0.7413   0.7757
  0.8053   0.8310   0.8460   0.8603   0.8924   0.8943   0.9212   0.9450
  0.9644   0.9915   1.0094   1.0419   1.0628   1.0930   1.1105   1.1192
  1.1291   1.1337   1.1504   1.1511   1.1755   1.1802   1.2010   1.2046
  1.2364   1.2505   1.2752   1.2976   1.3356   1.3572   1.3902   1.4007
  1.4103   1.4371   1.4714   1.4900   1.5236   1.5376   1.5788   1.5983
  1.6061   1.6294   1.6531   1.6712   1.7195   1.7297   1.7742   1.8091
  1.8362   1.8530   1.8803   1.8864   1.9431   1.9850   2.0248   2.0804
  2.1539   2.1650   2.2520   2.2689   2.2988   2.3429   2.3677   2.3800
  2.4156   2.4433   2.4518   2.4918   2.5452   2.5610   2.7048   2.7296
  2.7499   2.7868   2.8107   2.8668   2.8918   2.9106   3.0255   3.1200
  3.1658   3.2045   3.2244   3.2789   3.3527   3.3656   3.3936   3.4037
  3.4806   3.4949   3.5331   3.5745   3.6201   3.6580   3.6869   3.7270
  3.7383   3.7670   3.7889   3.8137   3.8579   3.8797   3.8894   3.9209
  3.9296   3.9724   4.0112   4.0734   4.1314   4.1811   4.2123   4.2161
  4.2408   4.2807   4.3095   4.3802   4.3842   4.4391   4.5146   4.7586
  5.0687   5.0780   5.0851   5.1257   5.1337   5.1429   5.1736   5.1852
  5.1909   5.2063   5.2281   5.2372   5.2459   5.2527   5.2688   5.2801
  5.2981   5.3127   5.3342   5.3484   5.3575   5.4192   5.4375   5.4957
  5.5143   5.5508   5.5873   5.5987   5.6145   5.6195   5.6468   5.6584
  5.6764   5.7197   5.7663   5.8926   5.9470   6.0019   6.1009   6.1559
  6.2066   6.4778   6.4950   6.7108   6.7866   6.8747   6.9037   6.9750
  7.0012   7.0076   7.0343   7.0598   7.0762   7.0947   7.1455   7.2037
  7.2317   7.2454   7.2612   7.2833   7.2916   7.3097   7.3515   7.3712
  7.4407   7.4443   7.5040   7.5335   7.6387   7.6627   7.7301   7.7594
  7.7712   7.8090   7.8872   7.8929  24.7860  25.1312  50.4529  50.5680
 50.5847  50.6183  50.7334
 
 Beta MOs
 -- Occupied --
-19.3981 -19.3647 -19.3643 -19.3599 -19.3517 -10.5040 -10.4757  -1.2691
 -1.2178  -1.1807  -1.1512  -1.0791  -0.8606  -0.7454  -0.6833  -0.6654
 -0.6397  -0.6099  -0.5738  -0.5525  -0.5459  -0.5235  -0.4875  -0.4531
 -0.4376  -0.4304  -0.4265  -0.4046
 -- Virtual --
 -0.0814   0.0257   0.0424   0.0506   0.0587   0.0749   0.0835   0.0939
  0.1030   0.1122   0.1243   0.1432   0.1516   0.1576   0.1764   0.2114
  0.2128   0.2232   0.2286   0.2453   0.2559   0.2636   0.2701   0.2806
  0.2940   0.3078   0.3122   0.3221   0.3273   0.3309   0.3335   0.3407
  0.3451   0.3482   0.3571   0.3766   0.3897   0.3948   0.4111   0.4196
  0.4322   0.4493   0.4663   0.4870   0.5509   0.5696   0.5922   0.6129
  0.6214   0.6315   0.6425   0.6611   0.6737   0.7080   0.7119   0.7421
  0.7767   0.8065   0.8320   0.8482   0.8608   0.8951   0.8955   0.9232
  0.9501   0.9658   0.9931   1.0143   1.0440   1.0682   1.0954   1.1124
  1.1201   1.1314   1.1347   1.1517   1.1542   1.1789   1.1963   1.2041
  1.2235   1.2379   1.2514   1.2807   1.3009   1.3396   1.3587   1.3927
  1.4030   1.4152   1.4407   1.4766   1.4914   1.5256   1.5411   1.5882
  1.6088   1.6152   1.6449   1.6560   1.6770   1.7232   1.7384   1.7895
  1.8144   1.8427   1.8561   1.8852   1.8963   1.9451   1.9863   2.0476
  2.0823   2.1561   2.1664   2.2541   2.2738   2.3009   2.3478   2.3720
  2.3835   2.4170   2.4493   2.4611   2.4961   2.5484   2.5621   2.7069
  2.7332   2.7608   2.7922   2.8141   2.8676   2.8931   2.9146   3.0252
  3.1234   3.1681   3.2054   3.2265   3.2807   3.3556   3.3680   3.3947
  3.4067   3.4830   3.4986   3.5341   3.5829   3.6217   3.6611   3.6919
  3.7358   3.7448   3.7720   3.7909   3.8168   3.8600   3.8833   3.8967
  3.9256   3.9392   3.9782   4.0126   4.0754   4.1343   4.1831   4.2129
  4.2242   4.2419   4.2819   4.3095   4.3788   4.3828   4.4307   4.5101
  4.7614   5.0844   5.1207   5.1271   5.1305   5.1384   5.1751   5.1828
  5.1937   5.2086   5.2255   5.2371   5.2424   5.2624   5.2693   5.2780
  5.2889   5.3205   5.3431   5.3447   5.3562   5.4149   5.4229   5.4534
  5.4971   5.5168   5.5527   5.5903   5.6011   5.6158   5.6368   5.6546
  5.6781   5.6977   5.7224   5.7716   5.8937   5.9475   6.0034   6.1027
  6.1571   6.2084   6.4789   6.5005   6.7132   6.7882   6.9047   6.9679
  7.0032   7.0061   7.0345   7.0583   7.0654   7.0921   7.1305   7.1881
  7.2066   7.2348   7.2488   7.2623   7.2881   7.3063   7.3533   7.3619
  7.3801   7.4416   7.4485   7.5073   7.6042   7.6461   7.6651   7.7320
  7.7624   7.7718   7.8108   7.8888   7.8945  24.7892  25.1315  50.4675
 50.5686  50.5851  50.6190  50.7336
 --------------------------------------------------------------
 
          Ground-State Mulliken Net Atomic Charges

     Atom                 Charge (a.u.)    Spin (a.u.)
  --------------------------------------------------------
      1 O                    -0.360199       0.026857
      2 C                    -0.224904       0.167620
      3 O                    -0.387674       0.033533
      4 C                     0.410702      -0.003305
      5 O                    -0.281742       0.000568
      6 O                    -0.461977       0.009198
      7 H                     0.354101       0.000282
      8 H                     0.315782       0.001922
      9 H                     0.365299       0.000052
     10 H                     0.384182      -0.027485
     11 O                    -0.444366       0.802762
     12 H                     0.330797      -0.012004
  --------------------------------------------------------
  Sum of atomic charges =    -0.000000
  Sum of spin   charges =     1.000000

 -----------------------------------------------------------------
                    Cartesian Multipole Moments
 -----------------------------------------------------------------
    Charge (ESU x 10^10)
                -0.0000
    Dipole Moment (Debye)
         X       2.9198      Y       1.2300      Z      -1.4737
       Tot       3.4943
    Quadrupole Moments (Debye-Ang)
        XX     -29.8897     XY       0.9498     YY     -41.9547
        XZ      -2.1380     YZ      -0.1508     ZZ     -49.2449
    Octopole Moments (Debye-Ang^2)
       XXX     -30.6888    XXY       0.8440    XYY     -38.6604
       YYY     -24.7007    XXZ     -26.1216    XYZ       3.4687
       YYZ     -17.9317    XZZ     -22.3278    YZZ     -24.9258
       ZZZ     -91.0497
    Hexadecapole Moments (Debye-Ang^3)
      XXXX    -277.4119   XXXY      -3.5358   XXYY    -107.0748
      XYYY     -11.2787   YYYY    -328.1505   XXXZ     -37.0226
      XXYZ      -0.1700   XYYZ      -5.0703   YYYZ     -75.9818
      XXZZ    -109.5635   XYZZ      -7.3423   YYZZ    -133.1802
      XZZZ     -48.0256   YZZZ    -101.1963   ZZZZ    -444.3141
 -----------------------------------------------------------------
 Total job time:  7262.80s(wall), 105251.52s(cpu) 
 Mon Jul 17 15:49:22 2023

        *************************************************************
        *                                                           *
        *  Thank you very much for using Q-Chem.  Have a nice day.  *
        *                                                           *
        *************************************************************


